% Model:              NP_reactive_flow_TCE_in_Low_Permeable.mph
% Version:            COMSOL 5.2.0.166
% Date:               Jun 7 2020, 21:50
% Table:              TCE_reacted lg = 0 - tce_reacted_mass (tce_reacted_mass)
% lowPM_per              t (s)                    The reacted TCE (mol/m)
1.0E-10                  0                        1.5857102941770964E-6
1.0E-10                  1                        1.5857103606322188E-6
1.0E-10                  2                        1.5857080911632607E-6
1.0E-10                  3                        1.585720614514886E-6
1.0E-10                  4                        1.5859935440144377E-6
1.0E-10                  5                        1.5870106158080708E-6
1.0E-10                  6                        1.5892472430091087E-6
1.0E-10                  7                        1.5930039891493935E-6
1.0E-10                  8                        1.5984186082360128E-6
1.0E-10                  9                        1.6054880850242141E-6
1.0E-10                  10                       1.6141427912313317E-6
1.0E-10                  11                       1.624266566574492E-6
1.0E-10                  12                       1.6357272113226374E-6
1.0E-10                  13                       1.648401493121448E-6
1.0E-10                  14                       1.6621639092278457E-6
1.0E-10                  15                       1.6769139239698347E-6
1.0E-10                  16                       1.6925625977398446E-6
1.0E-10                  17                       1.7090069169078374E-6
1.0E-10                  18                       1.7262085870906262E-6
1.0E-10                  19                       1.744126080963492E-6
1.0E-10                  20                       1.7626878078894469E-6
1.0E-10                  21                       1.7818691766892898E-6
1.0E-10                  22                       1.8016294391952017E-6
1.0E-10                  23                       1.8219213285322905E-6
1.0E-10                  24                       1.842723594949047E-6
1.0E-10                  25                       1.864010574638058E-6
1.0E-10                  26                       1.885749663523356E-6
1.0E-10                  27                       1.907921502462233E-6
1.0E-10                  28                       1.9305097976807988E-6
1.0E-10                  29                       1.9534908816370046E-6
1.0E-10                  30                       1.9768465097647296E-6
1.0E-10                  31                       2.000566098600164E-6
1.0E-10                  32                       2.0246317798807942E-6
1.0E-10                  33                       2.0490260054800436E-6
1.0E-10                  34                       2.073742081546137E-6
1.0E-10                  35                       2.0987661464685523E-6
1.0E-10                  36                       2.1240822937835247E-6
1.0E-10                  37                       2.149685970210616E-6
1.0E-10                  38                       2.175566148278935E-6
1.0E-10                  39                       2.2017100778944478E-6
1.0E-10                  40                       2.228112918613397E-6
1.0E-10                  41                       2.254766335944188E-6
1.0E-10                  42                       2.281659948659869E-6
1.0E-10                  43                       2.3087886403462333E-6
1.0E-10                  44                       2.336146099147001E-6
1.0E-10                  45                       2.363723781131455E-6
1.0E-10                  46                       2.39151143826479E-6
1.0E-10                  47                       2.419505336486386E-6
1.0E-10                  48                       2.4477074491409477E-6
1.0E-10                  49                       2.476103103694827E-6
1.0E-10                  50                       2.5046961611345053E-6
1.0E-10                  51                       2.5334840509407054E-6
1.0E-10                  52                       2.5624480138705227E-6
1.0E-10                  53                       2.591597714896928E-6
1.0E-10                  54                       2.6209217638257614E-6
1.0E-10                  55                       2.6504142932431816E-6
1.0E-10                  56                       2.680080674563148E-6
1.0E-10                  57                       2.709903067530238E-6
1.0E-10                  58                       2.739888477845151E-6
1.0E-10                  59                       2.7700330729245825E-6
1.0E-10                  60                       2.8003264362267506E-6
1.0E-10                  61                       2.830774424338213E-6
1.0E-10                  62                       2.8613678919756167E-6
1.0E-10                  63                       2.8921053259038472E-6
1.0E-10                  64                       2.922988876635698E-6
1.0E-10                  65                       2.9540062960115967E-6
1.0E-10                  66                       2.9851632811162137E-6
1.0E-10                  67                       3.0164554172772604E-6
1.0E-10                  68                       3.0478765598720232E-6
1.0E-10                  69                       3.079430609466638E-6
1.0E-10                  70                       3.1111090172088798E-6
1.0E-10                  71                       3.142912597258726E-6
1.0E-10                  72                       3.1748414840748512E-6
1.0E-10                  73                       3.2068868225486194E-6
1.0E-10                  74                       3.2390529940495383E-6
1.0E-10                  75                       3.2713352784809663E-6
1.0E-10                  76                       3.3037300358176375E-6
1.0E-10                  77                       3.3362400647018244E-6
1.0E-10                  78                       3.3688567893055992E-6
1.0E-10                  79                       3.401582759723524E-6
1.0E-10                  80                       3.4344165564729443E-6
1.0E-10                  81                       3.467351325413747E-6
1.0E-10                  82                       3.5003907239695943E-6
1.0E-10                  83                       3.5335292521319287E-6
1.0E-10                  84                       3.5667649893137836E-6
1.0E-10                  85                       3.6001000464896537E-6
1.0E-10                  86                       3.6335248155607307E-6
1.0E-10                  87                       3.6670436290347423E-6
1.0E-10                  88                       3.7006545631112413E-6
1.0E-10                  89                       3.734353978005045E-6
1.0E-10                  90                       3.7681378017020105E-6
1.0E-10                  91                       3.802004871841742E-6
1.0E-10                  92                       3.835952443789832E-6
1.0E-10                  93                       3.869978060338299E-6
1.0E-10                  94                       3.9040794092985086E-6
1.0E-10                  95                       3.9382543695659536E-6
1.0E-10                  96                       3.972501082585847E-6
1.0E-10                  97                       4.006824473532606E-6
1.0E-10                  98                       4.041218819414137E-6
1.0E-10                  99                       4.075669659878118E-6
1.0E-10                  100                      4.110169700304427E-6
1.0E-10                  101                      4.144721608236333E-6
1.0E-10                  102                      4.179342539721036E-6
1.0E-10                  103                      4.214024512698929E-6
1.0E-10                  104                      4.2487624247232805E-6
1.0E-10                  105                      4.283553141299745E-6
1.0E-10                  106                      4.318392402291008E-6
1.0E-10                  107                      4.35326239557016E-6
1.0E-10                  108                      4.388165871915649E-6
1.0E-10                  109                      4.423101929338052E-6
1.0E-10                  110                      4.4580652950028474E-6
1.0E-10                  111                      4.493051588722795E-6
1.0E-10                  112                      4.52806069321614E-6
1.0E-10                  113                      4.5630874387207504E-6
1.0E-10                  114                      4.5981266250780435E-6
1.0E-10                  115                      4.633172780278049E-6
1.0E-10                  116                      4.668218676794707E-6
1.0E-10                  117                      4.703250467601682E-6
1.0E-10                  118                      4.738264693678144E-6
1.0E-10                  119                      4.7732566340373615E-6
1.0E-10                  120                      4.808220131954059E-6
1.0E-10                  121                      4.843144785167587E-6
1.0E-10                  122                      4.878018257069159E-6
1.0E-10                  123                      4.912836874455676E-6
1.0E-10                  124                      4.947593885592876E-6
1.0E-10                  125                      4.982278872889517E-6
1.0E-10                  126                      5.016878587274081E-6
1.0E-10                  127                      5.0513818545660095E-6
1.0E-10                  128                      5.085777269111537E-6
1.0E-10                  129                      5.1200554032716295E-6
1.0E-10                  130                      5.154190047238578E-6
1.0E-10                  131                      5.1881575502130204E-6
1.0E-10                  132                      5.221984762270179E-6
1.0E-10                  133                      5.255645725328937E-6
1.0E-10                  134                      5.289123828002115E-6
1.0E-10                  135                      5.32240436322437E-6
1.0E-10                  136                      5.3554663859063135E-6
1.0E-10                  137                      5.388296183386922E-6
1.0E-10                  138                      5.420881263032369E-6
1.0E-10                  139                      5.453206020236722E-6
1.0E-10                  140                      5.48525361073653E-6
1.0E-10                  141                      5.517005200823816E-6
1.0E-10                  142                      5.548447228205175E-6
1.0E-10                  143                      5.579564572698076E-6
1.0E-10                  144                      5.610339743382375E-6
1.0E-10                  145                      5.640755584741916E-6
1.0E-10                  146                      5.670795162519561E-6
1.0E-10                  147                      5.700442089682004E-6
1.0E-10                  148                      5.729680596379573E-6
1.0E-10                  149                      5.758495489412488E-6
1.0E-10                  150                      5.786872096197397E-6
1.0E-10                  151                      5.814796214033326E-6
1.0E-10                  152                      5.842254065933916E-6
1.0E-10                  153                      5.869228222085199E-6
1.0E-10                  154                      5.895705781860781E-6
1.0E-10                  155                      5.921680038386049E-6
1.0E-10                  156                      5.947142358973286E-6
1.0E-10                  157                      5.9720801245199235E-6
1.0E-10                  158                      5.996487690177225E-6
1.0E-10                  159                      6.020350394388011E-6
1.0E-10                  160                      6.043669378117371E-6
1.0E-10                  161                      6.066430027564331E-6
1.0E-10                  162                      6.088635438633989E-6
1.0E-10                  163                      6.110276626787348E-6
1.0E-10                  164                      6.1313551572953775E-6
1.0E-10                  165                      6.1518678284262025E-6
1.0E-10                  166                      6.171816322126994E-6
1.0E-10                  167                      6.191200991137371E-6
1.0E-10                  168                      6.210025956291298E-6
1.0E-10                  169                      6.228292306842355E-6
1.0E-10                  170                      6.246009384988779E-6
1.0E-10                  171                      6.2631766633751765E-6
1.0E-10                  172                      6.279809070301924E-6
1.0E-10                  173                      6.2959056841459455E-6
1.0E-10                  174                      6.311483241452443E-6
1.0E-10                  175                      6.326544117847804E-6
1.0E-10                  176                      6.341103470188024E-6
1.0E-10                  177                      6.3551690711519246E-6
1.0E-10                  178                      6.368751740812751E-6
1.0E-10                  179                      6.381866640671572E-6
1.0E-10                  180                      6.394517637686004E-6
1.0E-10                  181                      6.406729158468718E-6
1.0E-10                  182                      6.418498226173322E-6
1.0E-10                  183                      6.429852955885571E-6
1.0E-10                  184                      6.440790667694592E-6
1.0E-10                  185                      6.451336155200419E-6
1.0E-10                  186                      6.46149189708378E-6
1.0E-10                  187                      6.471276510939172E-6
1.0E-10                  188                      6.480698850344218E-6
1.0E-10                  189                      6.48977011068655E-6
1.0E-10                  190                      6.4985065846612006E-6
1.0E-10                  191                      6.50691103797944E-6
1.0E-10                  192                      6.515008061496635E-6
1.0E-10                  193                      6.52279378423988E-6
1.0E-10                  194                      6.53029366270603E-6
1.0E-10                  195                      6.537505575212102E-6
1.0E-10                  196                      6.544450437690846E-6
1.0E-10                  197                      6.551130769492957E-6
1.0E-10                  198                      6.55756140701579E-6
1.0E-10                  199                      6.563750135330816E-6
1.0E-10                  200                      6.569705133851263E-6
1.0E-10                  201                      6.575439878805104E-6
1.0E-10                  202                      6.580955545328282E-6
1.0E-10                  203                      6.586271560117351E-6
1.0E-10                  204                      6.5913842648163015E-6
1.0E-10                  205                      6.596312136712625E-6
1.0E-10                  206                      6.601053939181043E-6
1.0E-10                  207                      6.605624021778256E-6
1.0E-10                  208                      6.61002453160577E-6
1.0E-10                  209                      6.614265204374847E-6
1.0E-10                  210                      6.6183518570339704E-6
1.0E-10                  211                      6.62228944329433E-6
1.0E-10                  212                      6.626087612631614E-6
1.0E-10                  213                      6.629746591270327E-6
1.0E-10                  214                      6.633279584312925E-6
1.0E-10                  215                      6.636684022903364E-6
1.0E-10                  216                      6.639971851144091E-6
1.0E-10                  217                      6.643142516200173E-6
1.0E-10                  218                      6.646204985631134E-6
1.0E-10                  219                      6.649160940879584E-6
1.0E-10                  220                      6.652016251920982E-6
1.0E-10                  221                      6.654774961592302E-6
1.0E-10                  222                      6.65743980703297E-6
1.0E-10                  223                      6.660017244435284E-6
1.0E-10                  224                      6.662507130482788E-6
1.0E-10                  225                      6.664917676988655E-6
1.0E-10                  226                      6.667247426984875E-6
1.0E-10                  227                      6.669503594755523E-6
1.0E-10                  228                      6.671686014394411E-6
1.0E-10                  229                      6.673799999706463E-6
1.0E-10                  230                      6.675846792113439E-6
1.0E-10                  231                      6.677829761251371E-6
1.0E-10                  232                      6.6797516212849E-6
1.0E-10                  233                      6.681613795583288E-6
1.0E-10                  234                      6.683420494758076E-6
1.0E-10                  235                      6.685171453734058E-6
1.0E-10                  236                      6.686871692001075E-6
1.0E-10                  237                      6.688520413846322E-6
1.0E-10                  238                      6.690121918672564E-6
1.0E-10                  239                      6.691676221269946E-6
1.0E-10                  240                      6.6931864358085215E-6
1.0E-10                  241                      6.6946534532504E-6
1.0E-10                  242                      6.696079182641772E-6
1.0E-10                  243                      6.69746542676029E-6
1.0E-10                  244                      6.698812894906169E-6
1.0E-10                  245                      6.700124313640653E-6
1.0E-10                  246                      6.701399411907725E-6
1.0E-10                  247                      6.70264124706885E-6
1.0E-10                  248                      6.703849396447512E-6
1.0E-10                  249                      6.705026416498408E-6
1.0E-10                  250                      6.706172393367688E-6
1.0E-10                  251                      6.7072891523119866E-6
1.0E-10                  252                      6.708377328635098E-6
1.0E-10                  253                      6.7094380034169354E-6
1.0E-10                  254                      6.710472384441725E-6
1.0E-10                  255                      6.7114808094811615E-6
1.0E-10                  256                      6.712465068558045E-6
1.0E-10                  257                      6.713424925667557E-6
1.0E-10                  258                      6.714362277390138E-6
1.0E-10                  259                      6.715276902965664E-6
1.0E-10                  260                      6.716170352310689E-6
1.0E-10                  261                      6.7170427305338705E-6
1.0E-10                  262                      6.7178951290026555E-6
1.0E-10                  263                      6.718728005515693E-6
1.0E-10                  264                      6.719541981869758E-6
1.0E-10                  265                      6.720337885131702E-6
1.0E-10                  266                      6.721115864763102E-6
1.0E-10                  267                      6.721877125130508E-6
1.0E-10                  268                      6.722621558377217E-6
1.0E-10                  269                      6.7233512271665556E-6
1.0E-10                  270                      6.724065451551729E-6
1.0E-10                  271                      6.724764231532684E-6
1.0E-10                  272                      6.725426965144922E-6
1.0E-10                  273                      6.726062723462359E-6
1.0E-10                  274                      6.726698481779742E-6
1.0E-10                  275                      6.727334240097207E-6
1.0E-10                  276                      6.727934842910106E-6
1.0E-10                  277                      6.728527457879464E-6
1.0E-10                  278                      6.7291200728488495E-6
1.0E-10                  279                      6.7297016052909235E-6
1.0E-10                  280                      6.73022327961047E-6
1.0E-10                  281                      6.730744953930098E-6
1.0E-10                  282                      6.731266628249644E-6
1.0E-10                  283                      6.731788302569245E-6
1.0E-10                  284                      6.7323099768888184E-6
1.0E-10                  285                      6.732831651208392E-6
1.0E-10                  286                      6.7333533255279656E-6
1.0E-10                  287                      6.733824615431851E-6
1.0E-10                  288                      6.734286234002233E-6
1.0E-10                  289                      6.734747852572614E-6
1.0E-10                  290                      6.735209471143023E-6
1.0E-10                  291                      6.735671089713404E-6
1.0E-10                  292                      6.73613270828384E-6
1.0E-10                  293                      6.736594326854222E-6
1.0E-10                  294                      6.737029412535301E-6
1.0E-10                  295                      6.737440172484928E-6
1.0E-10                  296                      6.737850932434528E-6
1.0E-10                  297                      6.738261692384128E-6
1.0E-10                  298                      6.738672452333755E-6
1.0E-10                  299                      6.739083212283355E-6
1.0E-10                  300                      6.7394939722329546E-6
1.0E-10                  301                      6.739895859337767E-6
1.0E-10                  302                      6.740263217958748E-6
1.0E-10                  303                      6.740630576579728E-6
1.0E-10                  304                      6.740997935200709E-6
1.0E-10                  305                      6.7413652938216894E-6
1.0E-10                  306                      6.74173265244267E-6
1.0E-10                  307                      6.742100011063651E-6
1.0E-10                  308                      6.742467369684658E-6
1.0E-10                  309                      6.742801621090102E-6
1.0E-10                  310                      6.743131662156925E-6
1.0E-10                  311                      6.7434617032237755E-6
1.0E-10                  312                      6.743791744290626E-6
1.0E-10                  313                      6.744121785357422E-6
1.0E-10                  314                      6.744451826424245E-6
1.0E-10                  315                      6.744781867491095E-6
1.0E-10                  316                      6.745093488856228E-6
1.0E-10                  317                      6.745391209758006E-6
1.0E-10                  318                      6.745688930659757E-6
1.0E-10                  319                      6.745986651561536E-6
1.0E-10                  320                      6.746284372463314E-6
1.0E-10                  321                      6.746582093365065E-6
1.0E-10                  322                      6.746879814266871E-6
1.0E-10                  323                      6.747174752728708E-6
1.0E-10                  324                      6.7474596382917915E-6
1.0E-10                  325                      6.7477416141935125E-6
1.0E-10                  326                      6.748020680433979E-6
1.0E-10                  327                      6.748296837013056E-6
1.0E-10                  328                      6.748570083930851E-6
1.0E-10                  329                      6.748840421187284E-6
1.0E-10                  330                      6.749107848782462E-6
1.0E-10                  331                      6.74937236671625E-6
1.0E-10                  332                      6.74963397498873E-6
1.0E-10                  333                      6.749892673599847E-6
1.0E-10                  334                      6.75014846254971E-6
1.0E-10                  335                      6.750401341838237E-6
1.0E-10                  336                      6.750651311465428E-6
1.0E-10                  337                      6.750898371431257E-6
1.0E-10                  338                      6.7511418879926375E-6
1.0E-10                  339                      6.751381994605886E-6
1.0E-10                  340                      6.75161905712066E-6
1.0E-10                  341                      6.7518530755369586E-6
1.0E-10                  342                      6.752084049854783E-6
1.0E-10                  343                      6.752311980074105E-6
1.0E-10                  344                      6.752536866194925E-6
1.0E-10                  345                      6.752758708217243E-6
1.0E-10                  346                      6.752977506141087E-6
1.0E-10                  347                      6.7531932599664555E-6
1.0E-10                  348                      6.753405969693322E-6
1.0E-10                  349                      6.753615635321687E-6
1.0E-10                  350                      6.75382225685155E-6
1.0E-10                  351                      6.754025834282911E-6
1.0E-10                  352                      6.754226367615824E-6
1.0E-10                  353                      6.754427583399985E-6
1.0E-10                  354                      6.754626298387484E-6
1.0E-10                  355                      6.754822454439145E-6
1.0E-10                  356                      6.755016051554941E-6
1.0E-10                  357                      6.755207089734872E-6
1.0E-10                  358                      6.7553955689789115E-6
1.0E-10                  359                      6.755581489287194E-6
1.0E-10                  360                      6.755764850659558E-6
1.0E-10                  361                      6.755945653096084E-6
1.0E-10                  362                      6.756123896596746E-6
1.0E-10                  363                      6.756299581161569E-6
1.0E-10                  364                      6.756472706790555E-6
1.0E-10                  365                      6.756643273483649E-6
1.0E-10                  366                      6.756811281240905E-6
1.0E-10                  367                      6.756977997455794E-6
1.0E-10                  368                      6.757144844891374E-6
1.0E-10                  369                      6.757309618008291E-6
1.0E-10                  370                      6.757472316806573E-6
1.0E-10                  371                      6.757632941286137E-6
1.0E-10                  372                      6.757791491447039E-6
1.0E-10                  373                      6.757947967289278E-6
1.0E-10                  374                      6.758102368812854E-6
1.0E-10                  375                      6.758254696017686E-6
1.0E-10                  376                      6.75840494890391E-6
1.0E-10                  377                      6.758553127471416E-6
1.0E-10                  378                      6.758699231720287E-6
1.0E-10                  379                      6.758843261650468E-6
1.0E-10                  380                      6.758985217261986E-6
1.0E-10                  381                      6.759125098554787E-6
1.0E-10                  382                      6.759265076750705E-6
1.0E-10                  383                      6.759404187379618E-6
1.0E-10                  384                      6.759541619616406E-6
1.0E-10                  385                      6.759677373461095E-6
1.0E-10                  386                      6.75981144891355E-6
1.0E-10                  387                      6.7599438459738244E-6
1.0E-10                  388                      6.760074564641973E-6
1.0E-10                  389                      6.760203604917942E-6
1.0E-10                  390                      6.760330966801758E-6
1.0E-10                  391                      6.7604566502934215E-6
1.0E-10                  392                      6.760580655392932E-6
1.0E-10                  393                      6.760702982100262E-6
1.0E-10                  394                      6.760823630415439E-6
1.0E-10                  395                      6.7609426003384094E-6
1.0E-10                  396                      6.76106007343677E-6
1.0E-10                  397                      6.761178121721188E-6
1.0E-10                  398                      6.76129479996524E-6
1.0E-10                  399                      6.761410108169035E-6
1.0E-10                  400                      6.7615240463324636E-6
1.0E-10                  401                      6.761636614455608E-6
1.0E-10                  402                      6.76174781253844E-6
1.0E-10                  403                      6.761857640580907E-6
1.0E-10                  404                      6.761966098583089E-6
1.0E-10                  405                      6.76207318654496E-6
1.0E-10                  406                      6.762178904466519E-6
1.0E-10                  407                      6.762283252347739E-6
1.0E-10                  408                      6.762386230188647E-6
1.0E-10                  409                      6.762487837989244E-6
1.0E-10                  410                      6.762588075749529E-6
1.0E-10                  411                      6.762687747594633E-6
1.0E-10                  412                      6.762787223242242E-6
1.0E-10                  413                      6.762885568232542E-6
1.0E-10                  414                      6.76298278256567E-6
1.0E-10                  415                      6.763078866241543E-6
1.0E-10                  416                      6.763173819260163E-6