% Model:              NP_reactive_flow_TCE_in_Low_Permeable.mph
% Version:            COMSOL 5.2.0.166
% Date:               Jun 7 2020, 21:50
% Table:              TCE_reacted lg = 1 - tce_reacted_mass (tce_reacted_mass)
% lowPM_per              t (s)                    The reacted TCE (mol/m)
1.0E-11                  0                        1.5857102941668847E-6
1.0E-11                  1                        1.5857102984045808E-6
1.0E-11                  2                        1.585708891300527E-6
1.0E-11                  3                        1.5857150390346398E-6
1.0E-11                  4                        1.5858559333231586E-6
1.0E-11                  5                        1.5863504772811016E-6
1.0E-11                  6                        1.587378716878424E-6
1.0E-11                  7                        1.5890167013526097E-6
1.0E-11                  8                        1.5912736558750563E-6
1.0E-11                  9                        1.5941184650901693E-6
1.0E-11                  10                       1.5975018983878444E-6
1.0E-11                  11                       1.6013867660313742E-6
1.0E-11                  12                       1.6057343067652162E-6
1.0E-11                  13                       1.6105094416906058E-6
1.0E-11                  14                       1.615682834744965E-6
1.0E-11                  15                       1.62123090976452E-6
1.0E-11                  16                       1.62713473596977E-6
1.0E-11                  17                       1.633378484783562E-6
1.0E-11                  18                       1.639949415233278E-6
1.0E-11                  19                       1.6468370052273478E-6
1.0E-11                  20                       1.6540319918561316E-6
1.0E-11                  21                       1.6615262693604544E-6
1.0E-11                  22                       1.6693126516885443E-6
1.0E-11                  23                       1.6773826464985485E-6
1.0E-11                  24                       1.6857323245653095E-6
1.0E-11                  25                       1.694354501677553E-6
1.0E-11                  26                       1.70324754434224E-6
1.0E-11                  27                       1.7124026508867122E-6
1.0E-11                  28                       1.7218155487037788E-6
1.0E-11                  29                       1.7314828932506548E-6
1.0E-11                  30                       1.7413978676013696E-6
1.0E-11                  31                       1.75155948945422E-6
1.0E-11                  32                       1.7619639867471905E-6
1.0E-11                  33                       1.7726076402043674E-6
1.0E-11                  34                       1.7834899368205478E-6
1.0E-11                  35                       1.7946076561648813E-6
1.0E-11                  36                       1.8059593818786994E-6
1.0E-11                  37                       1.8175438981651991E-6
1.0E-11                  38                       1.8293586981665628E-6
1.0E-11                  39                       1.8414033421932661E-6
1.0E-11                  40                       1.8536763110906493E-6
1.0E-11                  41                       1.866176012588824E-6
1.0E-11                  42                       1.8789021828115147E-6
1.0E-11                  43                       1.891853368361594E-6
1.0E-11                  44                       1.9050288135486654E-6
1.0E-11                  45                       1.9184278541449347E-6
1.0E-11                  46                       1.932048789503119E-6
1.0E-11                  47                       1.94589095040948E-6
1.0E-11                  48                       1.9599528361065647E-6
1.0E-11                  49                       1.9742314889660186E-6
1.0E-11                  50                       1.9887258815709276E-6
1.0E-11                  51                       2.0034318072232593E-6
1.0E-11                  52                       2.018345462499644E-6
1.0E-11                  53                       2.0334638586963967E-6
1.0E-11                  54                       2.04877808862215E-6
1.0E-11                  55                       2.0642849709390946E-6
1.0E-11                  56                       2.079976921646509E-6
1.0E-11                  57                       2.0958419755109115E-6
1.0E-11                  58                       2.1118768283362503E-6
1.0E-11                  59                       2.1280672856383315E-6
1.0E-11                  60                       2.144404358462524E-6
1.0E-11                  61                       2.1608804158672446E-6
1.0E-11                  62                       2.1774771277259153E-6
1.0E-11                  63                       2.1941902796453994E-6
1.0E-11                  64                       2.211006689689106E-6
1.0E-11                  65                       2.227910748725016E-6
1.0E-11                  66                       2.2448987500666558E-6
1.0E-11                  67                       2.2619543762872655E-6
1.0E-11                  68                       2.2790699431586152E-6
1.0E-11                  69                       2.296238160398903E-6
1.0E-11                  70                       2.313444373597086E-6
1.0E-11                  71                       2.3306863821780704E-6
1.0E-11                  72                       2.3479547654846192E-6
1.0E-11                  73                       2.3652463318563904E-6
1.0E-11                  74                       2.382546824587928E-6
1.0E-11                  75                       2.399855906353464E-6
1.0E-11                  76                       2.41717209068157E-6
1.0E-11                  77                       2.4344916479273368E-6
1.0E-11                  78                       2.4518104847952787E-6
1.0E-11                  79                       2.4691250361574325E-6
1.0E-11                  80                       2.486432287576391E-6
1.0E-11                  81                       2.5037297447815426E-6
1.0E-11                  82                       2.521016530056368E-6
1.0E-11                  83                       2.5382887793577892E-6
1.0E-11                  84                       2.5555427566631997E-6
1.0E-11                  85                       2.5727766436909835E-6
1.0E-11                  86                       2.5899893720101997E-6
1.0E-11                  87                       2.607180124759818E-6
1.0E-11                  88                       2.624348111345936E-6
1.0E-11                  89                       2.6414926188931303E-6
1.0E-11                  90                       2.658613094409165E-6
1.0E-11                  91                       2.675709122377738E-6
1.0E-11                  92                       2.6927803654080426E-6
1.0E-11                  93                       2.709826525859267E-6
1.0E-11                  94                       2.7268473314581455E-6
1.0E-11                  95                       2.743842534549551E-6
1.0E-11                  96                       2.760811911599808E-6
1.0E-11                  97                       2.7777552599464385E-6
1.0E-11                  98                       2.794672392337786E-6
1.0E-11                  99                       2.8115631313107786E-6
1.0E-11                  100                      2.828427742991933E-6
1.0E-11                  101                      2.8452658122058686E-6
1.0E-11                  102                      2.8620762248519045E-6
1.0E-11                  103                      2.878858125513087E-6
1.0E-11                  104                      2.8956110244435514E-6
1.0E-11                  105                      2.912334700575051E-6
1.0E-11                  106                      2.9290290345929793E-6
1.0E-11                  107                      2.94569388418004E-6
1.0E-11                  108                      2.9623290292363685E-6
1.0E-11                  109                      2.978934175523427E-6
1.0E-11                  110                      2.9955089716990232E-6
1.0E-11                  111                      3.0120530086521867E-6
1.0E-11                  112                      3.0285657930301967E-6
1.0E-11                  113                      3.045046751595483E-6
1.0E-11                  114                      3.0614952385177736E-6
1.0E-11                  115                      3.0779105231045297E-6
1.0E-11                  116                      3.0942918082748716E-6
1.0E-11                  117                      3.1106382414505373E-6
1.0E-11                  118                      3.1269486207613533E-6
1.0E-11                  119                      3.1432219442483194E-6
1.0E-11                  120                      3.1594570418944307E-6
1.0E-11                  121                      3.175653371499803E-6
1.0E-11                  122                      3.191808576668488E-6
1.0E-11                  123                      3.2079224870062555E-6
1.0E-11                  124                      3.223993512819885E-6
1.0E-11                  125                      3.2400206010029485E-6
1.0E-11                  126                      3.2560032668481744E-6
1.0E-11                  127                      3.271940011429999E-6
1.0E-11                  128                      3.287830650908338E-6
1.0E-11                  129                      3.303674273933175E-6
1.0E-11                  130                      3.3194693655032645E-6
1.0E-11                  131                      3.335215885368414E-6
1.0E-11                  132                      3.350914013052473E-6
1.0E-11                  133                      3.366562575009372E-6
1.0E-11                  134                      3.382161029136588E-6
1.0E-11                  135                      3.3977100276045636E-6
1.0E-11                  136                      3.413208893584548E-6
1.0E-11                  137                      3.428655707086523E-6
1.0E-11                  138                      3.4440517156288526E-6
1.0E-11                  139                      3.459396919211713E-6
1.0E-11                  140                      3.4746890718032123E-6
1.0E-11                  141                      3.489929343088264E-6
1.0E-11                  142                      3.5051177498540714E-6
1.0E-11                  143                      3.5202535168332927E-6
1.0E-11                  144                      3.5353366147674312E-6
1.0E-11                  145                      3.550367292907004E-6
1.0E-11                  146                      3.5653455900296266E-6
1.0E-11                  147                      3.5802715594330787E-6
1.0E-11                  148                      3.595145160266398E-6
1.0E-11                  149                      3.60996650289383E-6
1.0E-11                  150                      3.6247366018330818E-6
1.0E-11                  151                      3.639454877819368E-6
1.0E-11                  152                      3.6541213308526754E-6
1.0E-11                  153                      3.668738509290091E-6
1.0E-11                  154                      3.6833057596634498E-6
1.0E-11                  155                      3.697822681424261E-6
1.0E-11                  156                      3.71228927457224E-6
1.0E-11                  157                      3.7267055391076445E-6
1.0E-11                  158                      3.7410714750302302E-6
1.0E-11                  159                      3.755388138317907E-6
1.0E-11                  160                      3.769658473320382E-6
1.0E-11                  161                      3.7838797320321636E-6
1.0E-11                  162                      3.7980519144533066E-6
1.0E-11                  163                      3.8121750205839057E-6
1.0E-11                  164                      3.826249050423893E-6
1.0E-11                  165                      3.840274003973364E-6
1.0E-11                  166                      3.854254498695251E-6
1.0E-11                  167                      3.868189828244186E-6
1.0E-11                  168                      3.882077995274926E-6
1.0E-11                  169                      3.895918999786917E-6
1.0E-11                  170                      3.909712841780591E-6
1.0E-11                  171                      3.92345952125599E-6
1.0E-11                  172                      3.937159649433742E-6
1.0E-11                  173                      3.950820390022288E-6
1.0E-11                  174                      3.964436132089866E-6
1.0E-11                  175                      3.978006875636367E-6
1.0E-11                  176                      3.991532620662008E-6
1.0E-11                  177                      4.005013367166721E-6
1.0E-11                  178                      4.018449115150547E-6
1.0E-11                  179                      4.031843715714917E-6
1.0E-11                  180                      4.045198736311268E-6
1.0E-11                  181                      4.058510917039057E-6
1.0E-11                  182                      4.0717802578983805E-6
1.0E-11                  183                      4.085006758889332E-6
1.0E-11                  184                      4.0981904200119664E-6
1.0E-11                  185                      4.111331241266053E-6
1.0E-11                  186                      4.1244355735976606E-6
1.0E-11                  187                      4.137499363427173E-6
1.0E-11                  188                      4.150522148353559E-6
1.0E-11                  189                      4.163503928376736E-6
1.0E-11                  190                      4.176444703496597E-6
1.0E-11                  191                      4.18934447371325E-6
1.0E-11                  192                      4.20220486612737E-6
1.0E-11                  193                      4.2150283162290675E-6
1.0E-11                  194                      4.2278121384276875E-6
1.0E-11                  195                      4.240556332723433E-6
1.0E-11                  196                      4.253260899115966E-6
1.0E-11                  197                      4.265925837605502E-6
1.0E-11                  198                      4.27855114819211E-6
1.0E-11                  199                      4.291139626419303E-6
1.0E-11                  200                      4.303690239910044E-6
1.0E-11                  201                      4.31620222722992E-6
1.0E-11                  202                      4.328675588378768E-6
1.0E-11                  203                      4.3411103233569135E-6
1.0E-11                  204                      4.353506432164017E-6
1.0E-11                  205                      4.365864392004442E-6
1.0E-11                  206                      4.37818637682427E-6
1.0E-11                  207                      4.390470523529756E-6
1.0E-11                  208                      4.402716832120981E-6
1.0E-11                  209                      4.414925302597729E-6
1.0E-11                  210                      4.427095934960188E-6
1.0E-11                  211                      4.439228729208333E-6
1.0E-11                  212                      4.45132519672693E-6
1.0E-11                  213                      4.463385404577543E-6
1.0E-11                  214                      4.4754084783740235E-6
1.0E-11                  215                      4.4873944181166156E-6
1.0E-11                  216                      4.4993432238051294E-6
1.0E-11                  217                      4.511254895439809E-6
1.0E-11                  218                      4.523129471669507E-6
1.0E-11                  219                      4.5349695131004925E-6
1.0E-11                  220                      4.546773113301182E-6
1.0E-11                  221                      4.558540272271412E-6
1.0E-11                  222                      4.5702709900112385E-6
1.0E-11                  223                      4.5819652665206605E-6
1.0E-11                  224                      4.593623101799705E-6
1.0E-11                  225                      4.605245588745006E-6
1.0E-11                  226                      4.616833562566015E-6
1.0E-11                  227                      4.6283858099587525E-6
1.0E-11                  228                      4.639902330922784E-6
1.0E-11                  229                      4.651383125458354E-6
1.0E-11                  230                      4.662828193565381E-6
1.0E-11                  231                      4.674237535243946E-6
1.0E-11                  232                      4.685613521480513E-6
1.0E-11                  233                      4.696954876395914E-6
1.0E-11                  234                      4.708261251044638E-6
1.0E-11                  235                      4.719532645426687E-6
1.0E-11                  236                      4.730769059542114E-6
1.0E-11                  237                      4.741970493390865E-6
1.0E-11                  238                      4.753137668232066E-6
1.0E-11                  239                      4.764272268067396E-6
1.0E-11                  240                      4.775372656935767E-6
1.0E-11                  241                      4.7864388348373154E-6
1.0E-11                  242                      4.797470801771959E-6
1.0E-11                  243                      4.808468557739699E-6
1.0E-11                  244                      4.819432102740615E-6
1.0E-11                  245                      4.830363370434104E-6
1.0E-11                  246                      4.841261935844681E-6
1.0E-11                  247                      4.85212705815565E-6
1.0E-11                  248                      4.862958737367228E-6
1.0E-11                  249                      4.873756973479388E-6
1.0E-11                  250                      4.884521766492075E-6
1.0E-11                  251                      4.895253389218909E-6
1.0E-11                  252                      4.905954153887744E-6
1.0E-11                  253                      4.9166222078888275E-6
1.0E-11                  254                      4.927257551222132E-6
1.0E-11                  255                      4.9378601838877116E-6
1.0E-11                  256                      4.948430105885485E-6
1.0E-11                  257                      4.958967317215452E-6
1.0E-11                  258                      4.969473073237389E-6
1.0E-11                  259                      4.979947740454564E-6
1.0E-11                  260                      4.990390362911664E-6
1.0E-11                  261                      5.000800940608825E-6
1.0E-11                  262                      5.011179473545776E-6
1.0E-11                  263                      5.021525961722707E-6
1.0E-11                  264                      5.031840405139509E-6
1.0E-11                  265                      5.042124869834359E-6
1.0E-11                  266                      5.052377964086317E-6
1.0E-11                  267                      5.062599591756928E-6
1.0E-11                  268                      5.072789752846082E-6
1.0E-11                  269                      5.082948447353969E-6
1.0E-11                  270                      5.0930756752804276E-6
1.0E-11                  271                      5.103172050961567E-6
1.0E-11                  272                      5.113238343989432E-6
1.0E-11                  273                      5.123273650959638E-6
1.0E-11                  274                      5.133277971871967E-6
1.0E-11                  275                      5.143251306726556E-6
1.0E-11                  276                      5.153193655523349E-6
1.0E-11                  277                      5.163105018262347E-6
1.0E-11                  278                      5.172986500182714E-6
1.0E-11                  279                      5.182837636121142E-6
1.0E-11                  280                      5.192658167291881E-6
1.0E-11                  281                      5.202448093694821E-6
1.0E-11                  282                      5.212207415330019E-6
1.0E-11                  283                      5.221936132197445E-6
1.0E-11                  284                      5.231634443744656E-6
1.0E-11                  285                      5.241303092847654E-6
1.0E-11                  286                      5.250941422891729E-6
1.0E-11                  287                      5.260549433876773E-6
1.0E-11                  288                      5.270127125802813E-6
1.0E-11                  289                      5.279674498669904E-6
1.0E-11                  290                      5.289191552477991E-6
1.0E-11                  291                      5.29867872968109E-6
1.0E-11                  292                      5.308136013466343E-6
1.0E-11                  293                      5.3175631748098365E-6
1.0E-11                  294                      5.3269602137113006E-6
1.0E-11                  295                      5.336327130170897E-6
1.0E-11                  296                      5.345663924188654E-6
1.0E-11                  297                      5.354970612015975E-6
1.0E-11                  298                      5.36424759381936E-6
1.0E-11                  299                      5.3734945660305485E-6
1.0E-11                  300                      5.382711528649405E-6
1.0E-11                  301                      5.391898481675958E-6
1.0E-11                  302                      5.401055425110151E-6
1.0E-11                  303                      5.410182358952175E-6
1.0E-11                  304                      5.419279337156728E-6
1.0E-11                  305                      5.428346392737278E-6
1.0E-11                  306                      5.437383471861262E-6
1.0E-11                  307                      5.446390574528545E-6
1.0E-11                  308                      5.4553677007391816E-6
1.0E-11                  309                      5.464314850493198E-6
1.0E-11                  310                      5.473232023790568E-6
1.0E-11                  311                      5.4821190789005616E-6
1.0E-11                  312                      5.490976097908233E-6
1.0E-11                  313                      5.499803097354551E-6
1.0E-11                  314                      5.508600077239515E-6
1.0E-11                  315                      5.517367037563179E-6
1.0E-11                  316                      5.526103978325517E-6
1.0E-11                  317                      5.534810780425807E-6
1.0E-11                  318                      5.543487210242281E-6
1.0E-11                  319                      5.552133505156234E-6
1.0E-11                  320                      5.560749665167828E-6
1.0E-11                  321                      5.5693356902770355E-6
1.0E-11                  322                      5.577891580483803E-6
1.0E-11                  323                      5.586417335788239E-6
1.0E-11                  324                      5.594912478816154E-6
1.0E-11                  325                      5.603377144031737E-6
1.0E-11                  326                      5.611811492445978E-6
1.0E-11                  327                      5.620215524058931E-6
1.0E-11                  328                      5.6285892388705406E-6
1.0E-11                  329                      5.636932636880808E-6
1.0E-11                  330                      5.645245606853897E-6
1.0E-11                  331                      5.653527427879225E-6
1.0E-11                  332                      5.661778691961483E-6
1.0E-11                  333                      5.669999399100643E-6
1.0E-11                  334                      5.678189549296786E-6
1.0E-11                  335                      5.686349142549859E-6
1.0E-11                  336                      5.694478178859888E-6
1.0E-11                  337                      5.702576085956127E-6
1.0E-11                  338                      5.710642756348767E-6
1.0E-11                  339                      5.718678581797702E-6
1.0E-11                  340                      5.726683562302985E-6
1.0E-11                  341                      5.7346576978645094E-6
1.0E-11                  342                      5.742600988482274E-6
1.0E-11                  343                      5.7505134341564144E-6
1.0E-11                  344                      5.758393837261057E-6
1.0E-11                  345                      5.766243044596695E-6
1.0E-11                  346                      5.77406108210704E-6
1.0E-11                  347                      5.781847949792065E-6
1.0E-11                  348                      5.789603647651798E-6
1.0E-11                  349                      5.797328175686264E-6
1.0E-11                  350                      5.805021051391454E-6
1.0E-11                  351                      5.8126817722717805E-6
1.0E-11                  352                      5.820310972675692E-6
1.0E-11                  353                      5.827908652603271E-6
1.0E-11                  354                      5.83547481205438E-6
1.0E-11                  355                      5.843009451029184E-6
1.0E-11                  356                      5.850512569527654E-6
1.0E-11                  357                      5.857983069738632E-6
1.0E-11                  358                      5.865421466648798E-6
1.0E-11                  359                      5.87282797804149E-6
1.0E-11                  360                      5.880202603916762E-6
1.0E-11                  361                      5.887545344274533E-6
1.0E-11                  362                      5.894856199114857E-6
1.0E-11                  363                      5.9021348776518384E-6
1.0E-11                  364                      5.909380483186611E-6
1.0E-11                  365                      5.916593835734752E-6
1.0E-11                  366                      5.923774935296397E-6
1.0E-11                  367                      5.9309237818714385E-6
1.0E-11                  368                      5.9380403754598755E-6
1.0E-11                  369                      5.945124716061817E-6
1.0E-11                  370                      5.9521759617726456E-6
1.0E-11                  371                      5.959194208299306E-6
1.0E-11                  372                      5.966179844297566E-6
1.0E-11                  373                      5.973132869767399E-6
1.0E-11                  374                      5.980053284708833E-6
1.0E-11                  375                      5.986941089121894E-6
1.0E-11                  376                      5.9937962048153305E-6
1.0E-11                  377                      6.0006174922777795E-6
1.0E-11                  378                      6.007405833540478E-6
1.0E-11                  379                      6.014161228603588E-6
1.0E-11                  380                      6.020883677467111E-6
1.0E-11                  381                      6.027573180130937E-6
1.0E-11                  382                      6.034229736595121E-6
1.0E-11                  383                      6.040852825281087E-6
1.0E-11                  384                      6.047442197899355E-6
1.0E-11                  385                      6.053998322541826E-6
1.0E-11                  386                      6.0605211992084186E-6
1.0E-11                  387                      6.067010827899268E-6
1.0E-11                  388                      6.073467208614239E-6
1.0E-11                  389                      6.0798903413534664E-6
1.0E-11                  390                      6.08627935387652E-6
1.0E-11                  391                      6.0926347850720226E-6
1.0E-11                  392                      6.098956711693545E-6
1.0E-11                  393                      6.1052451337411154E-6
1.0E-11                  394                      6.111500051214625E-6
1.0E-11                  395                      6.117721464114236E-6
1.0E-11                  396                      6.1239091450622615E-6
1.0E-11                  397                      6.13006271912961E-6
1.0E-11                  398                      6.1361825871086915E-6
1.0E-11                  399                      6.1422687489993966E-6
1.0E-11                  400                      6.14832120480178E-6
1.0E-11                  401                      6.154339954515841E-6
1.0E-11                  402                      6.160324998141553E-6
1.0E-11                  403                      6.166275958932458E-6
1.0E-11                  404                      6.17219296467612E-6
1.0E-11                  405                      6.178076126393188E-6
1.0E-11                  406                      6.183925444083635E-6
1.0E-11                  407                      6.1897409177475425E-6
1.0E-11                  408                      6.195522547384856E-6
1.0E-11                  409                      6.201270295784348E-6
1.0E-11                  410                      6.2069839720270414E-6
1.0E-11                  411                      6.212663737153144E-6
1.0E-11                  412                      6.218309591162684E-6
1.0E-11                  413                      6.2239215340556325E-6
1.0E-11                  414                      6.229499565831964E-6
1.0E-11                  415                      6.235043686491758E-6