% Model:              NP_reactive_flow_Different_injection_TCE_in_Low_Permeable2.mph
% Version:            COMSOL 5.2.0.166
% Date:               Jun 15 2020, 01:33
% Table:              TCE_reacted 0.02 - tce_reacted_mass (tce_reacted_mass)
% lowPM_per              t (s)                    The reacted TCE (mol/m)
1.0E-12                  0                        1.5857102941617416E-6
1.0E-12                  1                        1.5857103605698889E-6
1.0E-12                  2                        1.585709101896068E-6
1.0E-12                  3                        1.5857157933533122E-6
1.0E-12                  4                        1.5858473659791812E-6
1.0E-12                  5                        1.5862948251092968E-6
1.0E-12                  6                        1.5872022036276396E-6
1.0E-12                  7                        1.5886155602635745E-6
1.0E-12                  8                        1.5905210483503601E-6
1.0E-12                  9                        1.5928728836190858E-6
1.0E-12                  10                       1.5956145282845999E-6
1.0E-12                  11                       1.598707072699115E-6
1.0E-12                  12                       1.6021118385849578E-6
1.0E-12                  13                       1.6057952140080931E-6
1.0E-12                  14                       1.6097294843362111E-6
1.0E-12                  15                       1.6138923210632595E-6
1.0E-12                  16                       1.618265775432268E-6
1.0E-12                  17                       1.6228349565496434E-6
1.0E-12                  18                       1.6275887535039527E-6
1.0E-12                  19                       1.632518052437647E-6
1.0E-12                  20                       1.6376153105850652E-6
1.0E-12                  21                       1.6428741249751544E-6
1.0E-12                  22                       1.6482888393014665E-6
1.0E-12                  23                       1.6538543344505784E-6
1.0E-12                  24                       1.6595659453013682E-6
1.0E-12                  25                       1.6654174603039523E-6
1.0E-12                  26                       1.6714077569665446E-6
1.0E-12                  27                       1.677532163211324E-6
1.0E-12                  28                       1.683788211222627E-6
1.0E-12                  29                       1.6901724978048134E-6
1.0E-12                  30                       1.6966797824808326E-6
1.0E-12                  31                       1.7033099699570637E-6
1.0E-12                  32                       1.7100595582819501E-6
1.0E-12                  33                       1.7169271788177397E-6
1.0E-12                  34                       1.723912183481741E-6
1.0E-12                  35                       1.7310134217641231E-6
1.0E-12                  36                       1.73823103732772E-6
1.0E-12                  37                       1.7455648043381996E-6
1.0E-12                  38                       1.7530148233406488E-6
1.0E-12                  39                       1.7605810457203823E-6
1.0E-12                  40                       1.7682633734423338E-6
1.0E-12                  41                       1.7760611424931202E-6
1.0E-12                  42                       1.7839739172597947E-6
1.0E-12                  43                       1.7919999005893342E-6
1.0E-12                  44                       1.8001375667622264E-6
1.0E-12                  45                       1.8083852207959514E-6
1.0E-12                  46                       1.8167377859730004E-6
1.0E-12                  47                       1.8251940193261436E-6
1.0E-12                  48                       1.8337486925945857E-6
1.0E-12                  49                       1.8423960727538827E-6
1.0E-12                  50                       1.851133462561213E-6
1.0E-12                  51                       1.8599522329417494E-6
1.0E-12                  52                       1.8688486607500914E-6
1.0E-12                  53                       1.877817656706698E-6
1.0E-12                  54                       1.8868493774205232E-6
1.0E-12                  55                       1.8959427421172914E-6
1.0E-12                  56                       1.905090104334946E-6
1.0E-12                  57                       1.9142858460836828E-6
1.0E-12                  58                       1.923527966398021E-6
1.0E-12                  59                       1.9328109123040596E-6
1.0E-12                  60                       1.942130244446678E-6
1.0E-12                  61                       1.951483033467383E-6
1.0E-12                  62                       1.9608668405864205E-6
1.0E-12                  63                       1.9702797921443886E-6
1.0E-12                  64                       1.979720519974538E-6
1.0E-12                  65                       1.9891883332053245E-6
1.0E-12                  66                       1.998682708148183E-6
1.0E-12                  67                       2.008203036371978E-6
1.0E-12                  68                       2.017758979423368E-6
1.0E-12                  69                       2.027330549033057E-6
1.0E-12                  70                       2.0369231690215794E-6
1.0E-12                  71                       2.0465402910216565E-6
1.0E-12                  72                       2.0561787376350665E-6
1.0E-12                  73                       2.0658420694953786E-6
1.0E-12                  74                       2.075529591437916E-6
1.0E-12                  75                       2.0852408284959E-6
1.0E-12                  76                       2.0949763345912283E-6
1.0E-12                  77                       2.1047348399500713E-6
1.0E-12                  78                       2.114514867789791E-6
1.0E-12                  79                       2.124315905851112E-6
1.0E-12                  80                       2.134137709245669E-6
1.0E-12                  81                       2.1439799713566123E-6
1.0E-12                  82                       2.1538423682560487E-6
1.0E-12                  83                       2.1637247307888797E-6
1.0E-12                  84                       2.1736270370537675E-6
1.0E-12                  85                       2.1835492650774813E-6
1.0E-12                  86                       2.1934912691200845E-6
1.0E-12                  87                       2.2034527310212435E-6
1.0E-12                  88                       2.2134333337679713E-6
1.0E-12                  89                       2.22343230200312E-6
1.0E-12                  90                       2.2334483029578094E-6
1.0E-12                  91                       2.2434799421447377E-6
1.0E-12                  92                       2.2535258950249495E-6
1.0E-12                  93                       2.2635848597749005E-6
1.0E-12                  94                       2.27365547976544E-6
1.0E-12                  95                       2.283736322342232E-6
1.0E-12                  96                       2.2938258592253665E-6
1.0E-12                  97                       2.3039225762549085E-6
1.0E-12                  98                       2.3140249004949674E-6
1.0E-12                  99                       2.3241310888830145E-6
1.0E-12                  100                      2.334239213231175E-6
1.0E-12                  101                      2.344347165196408E-6
1.0E-12                  102                      2.3544526939470645E-6
1.0E-12                  103                      2.364552075657887E-6
1.0E-12                  104                      2.374644275488179E-6
1.0E-12                  105                      2.384726018478846E-6
1.0E-12                  106                      2.3947956344260842E-6
1.0E-12                  107                      2.4048505321455806E-6
1.0E-12                  108                      2.4148864665991286E-6
1.0E-12                  109                      2.4249029652107163E-6
1.0E-12                  110                      2.43489668730756E-6
1.0E-12                  111                      2.4448651076467798E-6
1.0E-12                  112                      2.4548071706344837E-6
1.0E-12                  113                      2.4647199356630687E-6
1.0E-12                  114                      2.474600882675001E-6
1.0E-12                  115                      2.484448102643877E-6
1.0E-12                  116                      2.494262494122657E-6
1.0E-12                  117                      2.504041245514181E-6
1.0E-12                  118                      2.513782374555571E-6
1.0E-12                  119                      2.5234877538783727E-6
1.0E-12                  120                      2.533155002741915E-6
1.0E-12                  121                      2.5427797223052194E-6
1.0E-12                  122                      2.5523649399892984E-6
1.0E-12                  123                      2.561909649057425E-6
1.0E-12                  124                      2.5714089688692472E-6
1.0E-12                  125                      2.580865761977502E-6
1.0E-12                  126                      2.59027991379579E-6
1.0E-12                  127                      2.599647430950946E-6
1.0E-12                  128                      2.6089704268231E-6
1.0E-12                  129                      2.618248901412767E-6
1.0E-12                  130                      2.6274810946386146E-6
1.0E-12                  131                      2.636667577071063E-6
1.0E-12                  132                      2.645808539998679E-6
1.0E-12                  133                      2.6549036190733034E-6
1.0E-12                  134                      2.663952804741787E-6
1.0E-12                  135                      2.6729562065534965E-6
1.0E-12                  136                      2.68191401533397E-6
1.0E-12                  137                      2.6908263417409E-6
1.0E-12                  138                      2.699693071444422E-6
1.0E-12                  139                      2.708514855134778E-6
1.0E-12                  140                      2.7172927283952697E-6
1.0E-12                  141                      2.7260259517277737E-6
1.0E-12                  142                      2.734714525131531E-6
1.0E-12                  143                      2.743358448606989E-6
1.0E-12                  144                      2.7519577221543504E-6
1.0E-12                  145                      2.760512543931275E-6
1.0E-12                  146                      2.769026190947062E-6
1.0E-12                  147                      2.777496174138123E-6
1.0E-12                  148                      2.7859224935050612E-6
1.0E-12                  149                      2.794305149047009E-6
1.0E-12                  150                      2.8026441407647324E-6
1.0E-12                  151                      2.8109394686579194E-6
1.0E-12                  152                      2.8191954739106392E-6
1.0E-12                  153                      2.8274107986737425E-6
1.0E-12                  154                      2.8355841239904853E-6
1.0E-12                  155                      2.8437154498601493E-6
1.0E-12                  156                      2.851804776283812E-6
1.0E-12                  157                      2.859852103260653E-6
1.0E-12                  158                      2.8678603500824752E-6
1.0E-12                  159                      2.8758322043066352E-6
1.0E-12                  160                      2.883764150660147E-6
1.0E-12                  161                      2.8916561891426242E-6
1.0E-12                  162                      2.8995083197542364E-6
1.0E-12                  163                      2.9073205424951326E-6
1.0E-12                  164                      2.915093530675394E-6
1.0E-12                  165                      2.922834698156456E-6
1.0E-12                  166                      2.9305382925972105E-6
1.0E-12                  167                      2.9382043139975354E-6
1.0E-12                  168                      2.945832762357275E-6
1.0E-12                  169                      2.9534236376764698E-6
1.0E-12                  170                      2.9609769399554654E-6
1.0E-12                  171                      2.9684990330614656E-6
1.0E-12                  172                      2.9759875717374183E-6
1.0E-12                  173                      2.983440882238305E-6
1.0E-12                  174                      2.9908589645646477E-6
1.0E-12                  175                      2.998241818715755E-6
1.0E-12                  176                      3.0055894446916675E-6
1.0E-12                  177                      3.012905177572075E-6
1.0E-12                  178                      3.020191515608624E-6
1.0E-12                  179                      3.0274448598067034E-6
1.0E-12                  180                      3.0346652101660563E-6
1.0E-12                  181                      3.041852566687333E-6
1.0E-12                  182                      3.0490069293701407E-6
1.0E-12                  183                      3.0561296413658586E-6
1.0E-12                  184                      3.0632314969744026E-6
1.0E-12                  185                      3.070303925909338E-6
1.0E-12                  186                      3.0773469281713693E-6
1.0E-12                  187                      3.084360503759765E-6
1.0E-12                  188                      3.0913446526745518E-6
1.0E-12                  189                      3.0982993749161365E-6
1.0E-12                  190                      3.1052246704841804E-6
1.0E-12                  191                      3.112120539379293E-6
1.0E-12                  192                      3.118986981600296E-6
1.0E-12                  193                      3.1258239971484217E-6
1.0E-12                  194                      3.132631586022722E-6
1.0E-12                  195                      3.1394097482239015E-6
1.0E-12                  196                      3.146165876353438E-6
1.0E-12                  197                      3.1529027403992923E-6
1.0E-12                  198                      3.1596125850403937E-6
1.0E-12                  199                      3.1662954102761596E-6
1.0E-12                  200                      3.1729512161070506E-6
1.0E-12                  201                      3.1795800025328092E-6
1.0E-12                  202                      3.186181769553368E-6
1.0E-12                  203                      3.192756517168889E-6
1.0E-12                  204                      3.199304245379481E-6
1.0E-12                  205                      3.2058249541849814E-6
1.0E-12                  206                      3.2123186435854443E-6
1.0E-12                  207                      3.2187853135807207E-6
1.0E-12                  208                      3.225224964171041E-6
1.0E-12                  209                      3.2316550212005386E-6
1.0E-12                  210                      3.2380647676122652E-6
1.0E-12                  211                      3.2444506519866594E-6
1.0E-12                  212                      3.250812674324304E-6
1.0E-12                  213                      3.25715083462509E-6
1.0E-12                  214                      3.263465132888747E-6
1.0E-12                  215                      3.269755569115451E-6
1.0E-12                  216                      3.2760221433053376E-6
1.0E-12                  217                      3.2822648554583795E-6
1.0E-12                  218                      3.2884837055741973E-6
1.0E-12                  219                      3.294678693653306E-6
1.0E-12                  220                      3.3008498196954346E-6
1.0E-12                  221                      3.307000100634901E-6
1.0E-12                  222                      3.3131427678502766E-6
1.0E-12                  223                      3.3192643270805143E-6
1.0E-12                  224                      3.3253647783251805E-6
1.0E-12                  225                      3.3314441215848308E-6
1.0E-12                  226                      3.33750235685914E-6
1.0E-12                  227                      3.343539484148067E-6
1.0E-12                  228                      3.349555503451721E-6
1.0E-12                  229                      3.3555504147701287E-6
1.0E-12                  230                      3.3615242181032494E-6
1.0E-12                  231                      3.3674769134511373E-6
1.0E-12                  232                      3.373408500813806E-6
1.0E-12                  233                      3.379318980190917E-6
1.0E-12                  234                      3.385220251606242E-6
1.0E-12                  235                      3.391113935399508E-6
1.0E-12                  236                      3.396989971379076E-6
1.0E-12                  237                      3.4028483595450408E-6
1.0E-12                  238                      3.4086890998970227E-6
1.0E-12                  239                      3.414512192435388E-6
1.0E-12                  240                      3.4203176371600143E-6
1.0E-12                  241                      3.4261054340708477E-6
1.0E-12                  242                      3.4318755831680507E-6
1.0E-12                  243                      3.4376280844514878E-6
1.0E-12                  244                      3.4433629379212674E-6
1.0E-12                  245                      3.4490801435770507E-6
1.0E-12                  246                      3.454779701419285E-6
1.0E-12                  247                      3.460461611447767E-6
1.0E-12                  248                      3.4661258736625914E-6
1.0E-12                  249                      3.4717724880635958E-6
1.0E-12                  250                      3.4774014546511053E-6
1.0E-12                  251                      3.4830127734244287E-6
1.0E-12                  252                      3.48860644438442E-6
1.0E-12                  253                      3.4941824675302117E-6
1.0E-12                  254                      3.4997408428627796E-6
1.0E-12                  255                      3.5052815703815273E-6
1.0E-12                  256                      3.5108046500862246E-6
1.0E-12                  257                      3.5163100819774135E-6
1.0E-12                  258                      3.5217978660549584E-6
1.0E-12                  259                      3.5272732438943708E-6
1.0E-12                  260                      3.532750157821487E-6
1.0E-12                  261                      3.5382112503348713E-6
1.0E-12                  262                      3.5436565214346183E-6
1.0E-12                  263                      3.5490859711202944E-6
1.0E-12                  264                      3.554499599392767E-6
1.0E-12                  265                      3.559897406251304E-6
1.0E-12                  266                      3.5652793916962313E-6
1.0E-12                  267                      3.5706455557273315E-6
1.0E-12                  268                      3.575995898344659E-6
1.0E-12                  269                      3.5813304195486337E-6
1.0E-12                  270                      3.586649119338673E-6
1.0E-12                  271                      3.591951997715292E-6
1.0E-12                  272                      3.5972390546777996E-6
1.0E-12                  273                      3.6025102902269816E-6
1.0E-12                  274                      3.6077657043624857E-6
1.0E-12                  275                      3.613005297084041E-6
1.0E-12                  276                      3.6182290683920673E-6
1.0E-12                  277                      3.6234370182863345E-6
1.0E-12                  278                      3.6286291467672085E-6
1.0E-12                  279                      3.6338054538339167E-6
1.0E-12                  280                      3.638965939487164E-6
1.0E-12                  281                      3.6441106037266518E-6
1.0E-12                  282                      3.649239446552543E-6
1.0E-12                  283                      3.6543524679646483E-6
1.0E-12                  284                      3.6594496679632924E-6
1.0E-12                  285                      3.664557923396255E-6
1.0E-12                  286                      3.669654586379507E-6
1.0E-12                  287                      3.6747376377613706E-6
1.0E-12                  288                      3.6798070775415607E-6
1.0E-12                  289                      3.6848629057207823E-6
1.0E-12                  290                      3.6899051222984256E-6
1.0E-12                  291                      3.694933727274626E-6
1.0E-12                  292                      3.6999487206492343E-6
1.0E-12                  293                      3.7049501024226167E-6
1.0E-12                  294                      3.7099378725945697E-6
1.0E-12                  295                      3.71491203116508E-6
1.0E-12                  296                      3.7198725781340387E-6
1.0E-12                  297                      3.724819513501758E-6
1.0E-12                  298                      3.7297528372679125E-6
1.0E-12                  299                      3.7346725494327054E-6
1.0E-12                  300                      3.7395786499961367E-6
1.0E-12                  301                      3.7444711389579354E-6
1.0E-12                  302                      3.7493500163185894E-6
1.0E-12                  303                      3.754215282077638E-6
1.0E-12                  304                      3.7590669362353926E-6
1.0E-12                  305                      3.7639049787915825E-6
1.0E-12                  306                      3.7687294097464515E-6
1.0E-12                  307                      3.7735402290999453E-6
1.0E-12                  308                      3.778337436851942E-6
1.0E-12                  309                      3.7831210330025095E-6
1.0E-12                  310                      3.787905578303666E-6
1.0E-12                  311                      3.7926865084040863E-6
1.0E-12                  312                      3.7974556091338938E-6
1.0E-12                  313                      3.8022128804930205E-6
1.0E-12                  314                      3.806958322481575E-6
1.0E-12                  315                      3.811691935099801E-6
1.0E-12                  316                      3.816413718347333E-6
1.0E-12                  317                      3.82112367222432E-6
1.0E-12                  318                      3.8258217967306664E-6
1.0E-12                  319                      3.8305080918664815E-6
1.0E-12                  320                      3.835182557631711E-6
1.0E-12                  321                      3.839845194026517E-6
1.0E-12                  322                      3.8444960010506555E-6
1.0E-12                  323                      3.849134978704236E-6
1.0E-12                  324                      3.8537621269872435E-6
1.0E-12                  325                      3.8583774458996926E-6
1.0E-12                  326                      3.86298093544161E-6
1.0E-12                  327                      3.867572595612806E-6
1.0E-12                  328                      3.87215242641362E-6
1.0E-12                  329                      3.87672042784382E-6
1.0E-12                  330                      3.8812765999034216E-6
1.0E-12                  331                      3.885820942592586E-6
1.0E-12                  332                      3.890353455911083E-6
1.0E-12                  333                      3.8948741398589E-6
1.0E-12                  334                      3.899382994436375E-6
1.0E-12                  335                      3.903886137178765E-6
1.0E-12                  336                      3.9083906666331075E-6
1.0E-12                  337                      3.912884800797028E-6
1.0E-12                  338                      3.917368539670891E-6
1.0E-12                  339                      3.921841883254359E-6
1.0E-12                  340                      3.926304831547607E-6
1.0E-12                  341                      3.930757384550717E-6
1.0E-12                  342                      3.9351995422636215E-6
1.0E-12                  343                      3.9396313046862115E-6
1.0E-12                  344                      3.944052671818704E-6
1.0E-12                  345                      3.948463643661031E-6
1.0E-12                  346                      3.952864220212963E-6
1.0E-12                  347                      3.9572544014747834E-6
1.0E-12                  348                      3.961634187446452E-6
1.0E-12                  349                      3.966003578127577E-6
1.0E-12                  350                      3.970362573518739E-6
1.0E-12                  351                      3.9747111736196E-6
1.0E-12                  352                      3.979049378430283E-6
1.0E-12                  353                      3.983377187950706E-6
1.0E-12                  354                      3.987694602180936E-6
1.0E-12                  355                      3.992001621120798E-6
1.0E-12                  356                      3.996298244770711E-6
1.0E-12                  357                      4.000584473130107E-6
1.0E-12                  358                      4.0048603061995815E-6
1.0E-12                  359                      4.009125743978498E-6
1.0E-12                  360                      4.013381314105742E-6
1.0E-12                  361                      4.017641416663732E-6
1.0E-12                  362                      4.021892296195015E-6
1.0E-12                  363                      4.0261339526993746E-6
1.0E-12                  364                      4.030366386176607E-6
1.0E-12                  365                      4.034589596627077E-6
1.0E-12                  366                      4.038803584050692E-6
1.0E-12                  367                      4.0430083484473015E-6
1.0E-12                  368                      4.047203889816933E-6
1.0E-12                  369                      4.0513902081597215E-6
1.0E-12                  370                      4.055567303475586E-6
1.0E-12                  371                      4.059735175764378E-6
1.0E-12                  372                      4.063893825026531E-6
1.0E-12                  373                      4.068043251261638E-6
1.0E-12                  374                      4.07218345446959E-6
1.0E-12                  375                      4.07631443465089E-6
1.0E-12                  376                      4.080436191805143E-6
1.0E-12                  377                      4.084548725932609E-6
1.0E-12                  378                      4.088652037033015E-6
1.0E-12                  379                      4.092746125106456E-6
1.0E-12                  380                      4.096830990152987E-6
1.0E-12                  381                      4.100906632172852E-6
1.0E-12                  382                      4.1049730511655215E-6
1.0E-12                  383                      4.109030247131389E-6
1.0E-12                  384                      4.113078220070211E-6
1.0E-12                  385                      4.117116969982231E-6
1.0E-12                  386                      4.121155788918749E-6
1.0E-12                  387                      4.12518952067394E-6
1.0E-12                  388                      4.129214996351804E-6
1.0E-12                  389                      4.1332322159522736E-6
1.0E-12                  390                      4.1372411794753485E-6
1.0E-12                  391                      4.141241886921042E-6
1.0E-12                  392                      4.145234338289057E-6
1.0E-12                  393                      4.149218533579813E-6
1.0E-12                  394                      4.153194472793052E-6
1.0E-12                  395                      4.157162155928761E-6
1.0E-12                  396                      4.161121582987279E-6
1.0E-12                  397                      4.165072753968199E-6
1.0E-12                  398                      4.169015668871698E-6
1.0E-12                  399                      4.1729503276978285E-6
1.0E-12                  400                      4.176876730446565E-6
1.0E-12                  401                      4.180794877117731E-6
1.0E-12                  402                      4.184704767711502E-6
1.0E-12                  403                      4.188606402227865E-6
1.0E-12                  404                      4.1924997806667925E-6
1.0E-12                  405                      4.196384903028258E-6
1.0E-12                  406                      4.200261769312492E-6
1.0E-12                  407                      4.204130379518951E-6
1.0E-12                  408                      4.207990733648206E-6
1.0E-12                  409                      4.21184283169989E-6
1.0E-12                  410                      4.215686673674193E-6
1.0E-12                  411                      4.219529512865272E-6
1.0E-12                  412                      4.223374216494303E-6
1.0E-12                  413                      4.2272119425163245E-6
1.0E-12                  414                      4.231042690931892E-6