% Model:              NP_reactive_flow_Different_injection_TCE_in_Low_Permeable.mph
% Version:            COMSOL 5.2.0.166
% Date:               Jun 8 2020, 00:39
% Table:              tce_outflow_concentration0.1 - tce_outflow_concentraion (tce_outflow_concentraion)
% Q_inject_design        t (s)                    tce_outflow_concentraion (mol/(m*s))
0.1                      0                        1.1383345011908163E-14
0.1                      1                        2.2121692380860845E-11
0.1                      2                        -2.3215151431856233E-10
0.1                      3                        1.4844408676353804E-9
0.1                      4                        1.039059795605187E-8
0.1                      5                        2.6815041099558435E-8
0.1                      6                        4.705441923325495E-8
0.1                      7                        6.779070761157281E-8
0.1                      8                        8.698718256736991E-8
0.1                      9                        1.0401975543189625E-7
0.1                      10                       1.1906959301496824E-7
0.1                      11                       1.3235442662450885E-7
0.1                      12                       1.4410260863887075E-7
0.1                      13                       1.5458102957893895E-7
0.1                      14                       1.6404412397887895E-7
0.1                      15                       1.7269890108154642E-7
0.1                      16                       1.8070364987918502E-7
0.1                      17                       1.8819051357179888E-7
0.1                      18                       1.952621521354836E-7
0.1                      19                       2.0200048146942373E-7
0.1                      20                       2.0846284401022959E-7
0.1                      21                       2.1468574192333644E-7
0.1                      22                       2.2069317500650919E-7
0.1                      23                       2.2650412086812985E-7
0.1                      24                       2.3213630839557303E-7
0.1                      25                       2.3762856867318598E-7
0.1                      26                       2.429808016802945E-7
0.1                      27                       2.4818010322060803E-7
0.1                      28                       2.5323321198399135E-7
0.1                      29                       2.581424978479839E-7
0.1                      30                       2.6293723294554236E-7
0.1                      31                       2.676253100251557E-7
0.1                      32                       2.7223775333826235E-7
0.1                      33                       2.768003809659561E-7
0.1                      34                       2.8132420875144877E-7
0.1                      35                       2.858378983734879E-7
0.1                      36                       2.9034386614548017E-7
0.1                      37                       2.948514393928087E-7
0.1                      38                       2.993591714111088E-7
0.1                      39                       3.0386128160516365E-7
0.1                      40                       3.083474065657516E-7
0.1                      41                       3.1279841764065885E-7
0.1                      42                       3.1720541198672615E-7
0.1                      43                       3.2153821873103094E-7
0.1                      44                       3.2578249947188953E-7
0.1                      45                       3.299196114002417E-7
0.1                      46                       3.3391294555481494E-7
0.1                      47                       3.3775937664298466E-7
0.1                      48                       3.414324913000566E-7
0.1                      49                       3.4491772753404475E-7
0.1                      50                       3.4821014876741537E-7
0.1                      51                       3.51299353408167E-7
0.1                      52                       3.5418968584002575E-7
0.1                      53                       3.5688194988000347E-7
0.1                      54                       3.593920186103994E-7
0.1                      55                       3.6172586143891555E-7
0.1                      56                       3.6390176374232396E-7
0.1                      57                       3.6592790290835433E-7
0.1                      58                       3.678282708010017E-7
0.1                      59                       3.696302027651196E-7
0.1                      60                       3.71354786541025E-7
0.1                      61                       3.730225611064006E-7
0.1                      62                       3.7465832561857064E-7
0.1                      63                       3.762881620298207E-7
0.1                      64                       3.7792152037099365E-7
0.1                      65                       3.7955163595672904E-7
0.1                      66                       3.811697640680358E-7
0.1                      67                       3.827737786504761E-7
0.1                      68                       3.842928603212019E-7
0.1                      69                       3.8583843384902607E-7
0.1                      70                       3.8744213728310176E-7
0.1                      71                       3.889121523888779E-7
0.1                      72                       3.905897995603303E-7
0.1                      73                       3.922738199715509E-7
0.1                      74                       3.9394406379605704E-7
0.1                      75                       3.9551360545427984E-7
0.1                      76                       3.970730261505076E-7
0.1                      77                       3.9863089511546137E-7
0.1                      78                       4.001756851956675E-7
0.1                      79                       4.0169857131601376E-7
0.1                      80                       4.0320565668732863E-7
0.1                      81                       4.047396356358129E-7
0.1                      82                       4.062361169996639E-7
0.1                      83                       4.0768220487552376E-7
0.1                      84                       4.0909893114738274E-7
0.1                      85                       4.10494078733572E-7
0.1                      86                       4.1186340442774046E-7
0.1                      87                       4.13200187779526E-7
0.1                      88                       4.145015035173848E-7
0.1                      89                       4.1576717117827643E-7
0.1                      90                       4.169935679201525E-7
0.1                      91                       4.1817197664107245E-7
0.1                      92                       4.192914788561052E-7
0.1                      93                       4.203407087576243E-7
0.1                      94                       4.2131050981328255E-7
0.1                      95                       4.221926274587334E-7
0.1                      96                       4.229824800877134E-7
0.1                      97                       4.236768080120539E-7
0.1                      98                       4.2425241207389814E-7
0.1                      99                       4.247028971097754E-7
0.1                      100                      4.250262510674582E-7
0.1                      101                      4.2522194841591183E-7
0.1                      102                      4.252914308719414E-7
0.1                      103                      4.2523776979033364E-7
0.1                      104                      4.250652212778168E-7
0.1                      105                      4.247779594994729E-7
0.1                      106                      4.2438083835572913E-7
0.1                      107                      4.2387816926714544E-7
0.1                      108                      4.2327302687070537E-7
0.1                      109                      4.2256886631065486E-7
0.1                      110                      4.217664630508107E-7
0.1                      111                      4.208659598401485E-7
0.1                      112                      4.198685159604382E-7
0.1                      113                      4.187735007402289E-7
0.1                      114                      4.175915798820582E-7
0.1                      115                      4.163214442836714E-7
0.1                      116                      4.14967580303265E-7
0.1                      117                      4.1354687985330004E-7
0.1                      118                      4.120504400931701E-7
0.1                      119                      4.105017960650372E-7
0.1                      120                      4.0889983407890625E-7
0.1                      121                      4.072467660399928E-7
0.1                      122                      4.055646898879962E-7
0.1                      123                      4.0384228991616856E-7
0.1                      124                      4.020956589818603E-7
0.1                      125                      4.0032535716230933E-7
0.1                      126                      3.9853144906629353E-7
0.1                      127                      3.9672903190968407E-7
0.1                      128                      3.949105768590766E-7
0.1                      129                      3.9307608391447117E-7
0.1                      130                      3.912255530758676E-7
0.1                      131                      3.8936114784637016E-7
0.1                      132                      3.874916015770487E-7
0.1                      133                      3.8561007238177264E-7
0.1                      134                      3.8371656026054184E-7
0.1                      135                      3.818110652133567E-7
0.1                      136                      3.79896875180301E-7
0.1                      137                      3.779911701050655E-7
0.1                      138                      3.7608093697576927E-7
0.1                      139                      3.7416617579241236E-7
0.1                      140                      3.7224688655499456E-7
0.1                      141                      3.703260530484137E-7
0.1                      142                      3.6842460393005365E-7
0.1                      143                      3.6652715872572565E-7
0.1                      144                      3.646337174354298E-7
0.1                      145                      3.627442800591662E-7
0.1                      146                      3.6086057460366427E-7
0.1                      147                      3.589999041816956E-7
0.1                      148                      3.571498950921327E-7
0.1                      149                      3.553105473349757E-7
0.1                      150                      3.5348186091022477E-7
0.1                      151                      3.516643769550981E-7
0.1                      152                      3.49866796953601E-7
0.1                      153                      3.480830507266161E-7
0.1                      154                      3.463131382741433E-7
0.1                      155                      3.445570595961828E-7
0.1                      156                      3.428148685290568E-7
0.1                      157                      3.4108844135915473E-7
0.1                      158                      3.3937649849077726E-7
0.1                      159                      3.3767903992392453E-7
0.1                      160                      3.359960656585965E-7
0.1                      161                      3.343275756947932E-7
0.1                      162                      3.3267298782934013E-7
0.1                      163                      3.3103269019826726E-7
0.1                      164                      3.2940668355316595E-7
0.1                      165                      3.2779496789403636E-7
0.1                      166                      3.261975432208785E-7
0.1                      167                      3.2461308384944467E-7
0.1                      168                      3.2304241610058293E-7
0.1                      169                      3.214855809384101E-7
0.1                      170                      3.1994257836292606E-7
0.1                      171                      3.184134083741308E-7
0.1                      172                      3.168980709720243E-7
0.1                      173                      3.1539656615660656E-7
0.1                      174                      3.139088939278777E-7
0.1                      175                      3.1243505428583764E-7
0.1                      176                      3.109750472304865E-7
0.1                      177                      3.0952800080766835E-7
0.1                      178                      3.080945172653181E-7
0.1                      179                      3.0667468875838914E-7
0.1                      180                      3.052685152868814E-7
0.1                      181                      3.0387599685079475E-7
0.1                      182                      3.024971334501295E-7
0.1                      183                      3.0113192508488545E-7
0.1                      184                      2.997803717550625E-7
0.1                      185                      2.984424734606608E-7
0.1                      186                      2.971182302016806E-7
0.1                      187                      2.9580779715467807E-7
0.1                      188                      2.9451108296879067E-7
0.1                      189                      2.9322805824392805E-7
0.1                      190                      2.9195872298009055E-7
0.1                      191                      2.9070307717727814E-7
0.1                      192                      2.894611208354907E-7
0.1                      193                      2.8823285395472806E-7
0.1                      194                      2.8701827653499075E-7
0.1                      195                      2.8581738857627834E-7
0.1                      196                      2.8463019007859103E-7
0.1                      197                      2.8345448745493746E-7
0.1                      198                      2.82291308155344E-7
0.1                      199                      2.8114128444990974E-7
0.1                      200                      2.80004416338635E-7
0.1                      201                      2.788807038215196E-7
0.1                      202                      2.777701468985634E-7
0.1                      203                      2.7667274556976646E-7
0.1                      204                      2.75588499835129E-7
0.1                      205                      2.7451740969465074E-7
0.1                      206                      2.734594751483319E-7
0.1                      207                      2.7240379984257993E-7
0.1                      208                      2.713539179364049E-7
0.1                      209                      2.7031425841317137E-7
0.1                      210                      2.6928482127287934E-7
0.1                      211                      2.68265606515529E-7
0.1                      212                      2.6725661414112016E-7
0.1                      213                      2.66257844149653E-7
0.1                      214                      2.652692965411273E-7
0.1                      215                      2.6429097131554335E-7
0.1                      216                      2.633228684729008E-7
0.1                      217                      2.6236498801320007E-7
0.1                      218                      2.6141732993644074E-7
0.1                      219                      2.6047989424262306E-7
0.1                      220                      2.595526809317469E-7
0.1                      221                      2.586356900038123E-7
0.1                      222                      2.5772892145881935E-7
0.1                      223                      2.56832375296768E-7
0.1                      224                      2.5594605151765824E-7
0.1                      225                      2.550699501214901E-7
0.1                      226                      2.5420407110826334E-7
0.1                      227                      2.5333583121896377E-7
0.1                      228                      2.5246596499449266E-7
0.1                      229                      2.5160412445352244E-7
0.1                      230                      2.507503095960533E-7
0.1                      231                      2.499045204220852E-7
0.1                      232                      2.4906675693161816E-7
0.1                      233                      2.4823701912465227E-7
0.1                      234                      2.4741530700118727E-7
0.1                      235                      2.466016205612235E-7
0.1                      236                      2.4579595980476044E-7
0.1                      237                      2.4499832473179877E-7
0.1                      238                      2.442087153423381E-7
0.1                      239                      2.4342713163637815E-7
0.1                      240                      2.426535736139196E-7
0.1                      241                      2.4188804127496203E-7
0.1                      242                      2.411305346195055E-7
0.1                      243                      2.403810536475499E-7
0.1                      244                      2.3963959835909545E-7
0.1                      245                      2.38906168754142E-7
0.1                      246                      2.3818076483268958E-7
0.1                      247                      2.374531610271985E-7
0.1                      248                      2.367175876609738E-7
0.1                      249                      2.3598765307502096E-7
0.1                      250                      2.352633572693398E-7
0.1                      251                      2.3454470024393068E-7
0.1                      252                      2.3383168199879325E-7
0.1                      253                      2.3312430253392762E-7
0.1                      254                      2.3242256184933387E-7
0.1                      255                      2.31726459945012E-7
0.1                      256                      2.3103599682096182E-7
0.1                      257                      2.3035117247718349E-7
0.1                      258                      2.29671986913677E-7
0.1                      259                      2.289984401304423E-7
0.1                      260                      2.2833053212747942E-7
0.1                      261                      2.2766826290478839E-7
0.1                      262                      2.270116324623692E-7
0.1                      263                      2.263606408002218E-7
0.1                      264                      2.2571528791834618E-7
0.1                      265                      2.2507557381674245E-7
0.1                      266                      2.2444149849541046E-7
0.1                      267                      2.2380861492002862E-7
0.1                      268                      2.231689401792813E-7
0.1                      269                      2.2253334851302365E-7
0.1                      270                      2.219018399212557E-7
0.1                      271                      2.2127441440397753E-7
0.1                      272                      2.2065107196118893E-7
0.1                      273                      2.2003181259289E-7
0.1                      274                      2.1941663629908092E-7
0.1                      275                      2.1880554307976135E-7
0.1                      276                      2.1819853293493157E-7
0.1                      277                      2.175956058645915E-7
0.1                      278                      2.16996761868741E-7
0.1                      279                      2.1640200094738023E-7
0.1                      280                      2.158113231005092E-7
0.1                      281                      2.152247283281278E-7
0.1                      282                      2.1464221663023612E-7
0.1                      283                      2.1406378800683405E-7
0.1                      284                      2.1348944245792182E-7
0.1                      285                      2.1291917998349905E-7
0.1                      286                      2.1235300058356615E-7
0.1                      287                      2.1178911633237093E-7
0.1                      288                      2.1121791112992226E-7
0.1                      289                      2.1064955744376477E-7
0.1                      290                      2.1008405527389846E-7
0.1                      291                      2.0952140462032333E-7
0.1                      292                      2.0896160548303924E-7
0.1                      293                      2.0840465786204639E-7
0.1                      294                      2.0785056175734473E-7
0.1                      295                      2.0729931716893407E-7
0.1                      296                      2.0675092409681474E-7
0.1                      297                      2.062053825409864E-7
0.1                      298                      2.0566269250144917E-7
0.1                      299                      2.0512285397820336E-7
0.1                      300                      2.0458586697124847E-7
0.1                      301                      2.040517314805848E-7
0.1                      302                      2.0352044750621224E-7
0.1                      303                      2.029920150481309E-7
0.1                      304                      2.0246643410634067E-7
0.1                      305                      2.0194370468084163E-7
0.1                      306                      2.0142382677163367E-7
0.1                      307                      2.0090680037871682E-7
0.1                      308                      2.003926255020912E-7
0.1                      309                      1.998813021417567E-7
0.1                      310                      1.9937283029771333E-7
0.1                      311                      1.988672099699611E-7
0.1                      312                      1.9836444115850006E-7
0.1                      313                      1.9786452386333025E-7
0.1                      314                      1.9736745808445142E-7
0.1                      315                      1.968732438218638E-7
0.1                      316                      1.9638188107556734E-7
0.1                      317                      1.958933698455621E-7
0.1                      318                      1.9540771013184786E-7
0.1                      319                      1.949249019344249E-7
0.1                      320                      1.9444494525329306E-7
0.1                      321                      1.9396784008845235E-7
0.1                      322                      1.9349358643990276E-7
0.1                      323                      1.9302218430764432E-7
0.1                      324                      1.9255363369167708E-7
0.1                      325                      1.920879345920009E-7
0.1                      326                      1.9162508700861601E-7
0.1                      327                      1.911650909415221E-7
0.1                      328                      1.9069954042331594E-7
0.1                      329                      1.90235140296395E-7
0.1                      330                      1.8977312172672134E-7
0.1                      331                      1.8931348471429524E-7
0.1                      332                      1.8885622925911637E-7
0.1                      333                      1.88401355361185E-7
0.1                      334                      1.87948863020501E-7
0.1                      335                      1.8749875223706438E-7
0.1                      336                      1.8705102301087522E-7
0.1                      337                      1.8660567534193342E-7
0.1                      338                      1.8616270923023901E-7
0.1                      339                      1.8572212467579203E-7
0.1                      340                      1.8528392167859238E-7
0.1                      341                      1.8484810023864026E-7
0.1                      342                      1.8441466035593556E-7
0.1                      343                      1.8398360203047813E-7
0.1                      344                      1.8355492526226813E-7
0.1                      345                      1.8312863005130556E-7
0.1                      346                      1.8270471639759046E-7
0.1                      347                      1.8228318430112262E-7
0.1                      348                      1.8186403376190228E-7
0.1                      349                      1.8144726477992936E-7
0.1                      350                      1.810328773552038E-7
0.1                      351                      1.8062087148772567E-7
0.1                      352                      1.8021124717749487E-7
0.1                      353                      1.7980400442451158E-7
0.1                      354                      1.7939914322877562E-7
0.1                      355                      1.789966635902871E-7
0.1                      356                      1.7859656550904592E-7
0.1                      357                      1.7819884898505223E-7
0.1                      358                      1.7780351401830587E-7
0.1                      359                      1.7741056060880696E-7
0.1                      360                      1.7701998875655544E-7
0.1                      361                      1.7663179846155132E-7
0.1                      362                      1.7624598972379464E-7
0.1                      363                      1.7586256254328528E-7
0.1                      364                      1.7548151692002337E-7
0.1                      365                      1.7510285285400881E-7
0.1                      366                      1.747265703452418E-7
0.1                      367                      1.7435266939372205E-7
0.1                      368                      1.7397381198018822E-7
0.1                      369                      1.7359187678050233E-7
0.1                      370                      1.7321172041671093E-7
0.1                      371                      1.7283334288881416E-7
0.1                      372                      1.724567441968119E-7
0.1                      373                      1.720819243407042E-7
0.1                      374                      1.7170888332049116E-7
0.1                      375                      1.7133762113617256E-7
0.1                      376                      1.709681377877486E-7
0.1                      377                      1.7060043327521912E-7
0.1                      378                      1.702345075985844E-7
0.1                      379                      1.6987036075784414E-7
0.1                      380                      1.6950799275299832E-7
0.1                      381                      1.6914740358404725E-7
0.1                      382                      1.6878859325099066E-7
0.1                      383                      1.684315617538287E-7
0.1                      384                      1.6807630909256128E-7
0.1                      385                      1.677228352671884E-7
0.1                      386                      1.6737114027771008E-7
0.1                      387                      1.670212241241264E-7
0.1                      388                      1.6667308680643711E-7
0.1                      389                      1.6632672832464258E-7
0.1                      390                      1.6598214867874255E-7
0.1                      391                      1.656393478687371E-7
0.1                      392                      1.6529832589462618E-7
0.1                      393                      1.6495908275640984E-7
0.1                      394                      1.6462161845408803E-7
0.1                      395                      1.6428593298766092E-7
0.1                      396                      1.639520263571283E-7
0.1                      397                      1.6361989856249026E-7
0.1                      398                      1.6328954960374675E-7
0.1                      399                      1.6296097948089785E-7
0.1                      400                      1.626341881939434E-7
0.1                      401                      1.6230917574288368E-7
0.1                      402                      1.619859421277185E-7
0.1                      403                      1.616644873484478E-7
0.1                      404                      1.6134481140507172E-7
0.1                      405                      1.6102691429759019E-7
0.1                      406                      1.607107960260032E-7
0.1                      407                      1.603964565903108E-7
0.1                      408                      1.6007952699503736E-7
0.1                      409                      1.5975473935159448E-7
0.1                      410                      1.5943106229095214E-7
0.1                      411                      1.591084958131104E-7
0.1                      412                      1.5878703991806922E-7
0.1                      413                      1.5846669460582858E-7