% Model:              NP_reactive_flow_Different_injection_TCE_in_Low_Permeable.mph
% Version:            COMSOL 5.2.0.166
% Date:               Jun 8 2020, 00:39
% Table:              tce_outflow_concentration0.5 - tce_outflow_concentraion (tce_outflow_concentraion)
% Q_inject_design        t (s)                    tce_outflow_concentraion (mol/(m*s))
0.5                      0                        1.5651812836463338E-13
0.5                      1                        8.318869051424363E-8
0.5                      2                        4.47805229524533E-7
0.5                      3                        6.027580849230002E-7
0.5                      4                        6.8323385344892E-7
0.5                      5                        7.391391600630584E-7
0.5                      6                        7.884410811534133E-7
0.5                      7                        8.340464058475507E-7
0.5                      8                        8.871447443057968E-7
0.5                      9                        9.603076647802622E-7
0.5                      10                       1.0384897864673768E-6
0.5                      11                       1.0918223494156348E-6
0.5                      12                       1.115981446034381E-6
0.5                      13                       1.128848377443779E-6
0.5                      14                       1.1405827188779275E-6
0.5                      15                       1.1514545941802058E-6
0.5                      16                       1.161667547716481E-6
0.5                      17                       1.1737563968696476E-6
0.5                      18                       1.186403552831805E-6
0.5                      19                       1.1889634473184342E-6
0.5                      20                       1.1823776604678127E-6
0.5                      21                       1.16359754674094E-6
0.5                      22                       1.125582976566847E-6
0.5                      23                       1.0793904988470508E-6
0.5                      24                       1.0351323628580892E-6
0.5                      25                       9.922413720294862E-7
0.5                      26                       9.514617949680007E-7
0.5                      27                       9.149002979078666E-7
0.5                      28                       8.829980275952766E-7
0.5                      29                       8.545323511411111E-7
0.5                      30                       8.289047970638176E-7
0.5                      31                       8.059404962558437E-7
0.5                      32                       7.85006749766758E-7
0.5                      33                       7.658748381418561E-7
0.5                      34                       7.482930894336843E-7
0.5                      35                       7.320928520431399E-7
0.5                      36                       7.169038273679001E-7
0.5                      37                       7.02606738477258E-7
0.5                      38                       6.892607424258963E-7
0.5                      39                       6.76628774152838E-7
0.5                      40                       6.647517200542199E-7
0.5                      41                       6.535735248168935E-7
0.5                      42                       6.42966970559184E-7
0.5                      43                       6.330066215016282E-7
0.5                      44                       6.235578362249563E-7
0.5                      45                       6.145606276899768E-7
0.5                      46                       6.060763702585949E-7
0.5                      47                       5.978261005680629E-7
0.5                      48                       5.898832145680884E-7
0.5                      49                       5.822581346477908E-7
0.5                      50                       5.748102312995661E-7
0.5                      51                       5.676102547438236E-7
0.5                      52                       5.606582049805631E-7
0.5                      53                       5.539540820097846E-7
0.5                      54                       5.474978858314884E-7
0.5                      55                       5.412175902239578E-7
0.5                      56                       5.35122992570018E-7
0.5                      57                       5.292420207546055E-7
0.5                      58                       5.235746747777198E-7
0.5                      59                       5.18120954639362E-7
0.5                      60                       5.128185130672753E-7
0.5                      61                       5.074513415235216E-7
0.5                      62                       5.021991246153867E-7
0.5                      63                       4.9706186234287E-7
0.5                      64                       4.92039554705972E-7
0.5                      65                       4.871322017046926E-7
0.5                      66                       4.823185928113491E-7
0.5                      67                       4.776053989970457E-7
0.5                      68                       4.7299820392251487E-7
0.5                      69                       4.684970075877561E-7
0.5                      70                       4.641018099927697E-7
0.5                      71                       4.598141265322723E-7
0.5                      72                       4.556371153007371E-7
0.5                      73                       4.515678556994897E-7
0.5                      74                       4.476063477285299E-7
0.5                      75                       4.437525913878578E-7
0.5                      76                       4.400065866774731E-7
0.5                      77                       4.363683335973763E-7
0.5                      78                       4.3283783214756714E-7
0.5                      79                       4.2941508232804585E-7
0.5                      80                       4.2610008413881194E-7
0.5                      81                       4.2289283757986586E-7
0.5                      82                       4.197035884175838E-7
0.5                      83                       4.164453583722188E-7
0.5                      84                       4.1325284067440885E-7
0.5                      85                       4.101260353241541E-7
0.5                      86                       4.070649423214538E-7
0.5                      87                       4.0406956166630887E-7
0.5                      88                       4.0113989335871844E-7
0.5                      89                       3.9827593739868324E-7
0.5                      90                       3.9547769378620305E-7
0.5                      91                       3.927451625212777E-7
0.5                      92                       3.900783436039073E-7
0.5                      93                       3.874135522627344E-7
0.5                      94                       3.847205045673782E-7
0.5                      95                       3.8206860018165176E-7
0.5                      96                       3.794578391055555E-7
0.5                      97                       3.768882213390891E-7
0.5                      98                       3.7435974688225253E-7
0.5                      99                       3.7187241573504607E-7
0.5                      100                      3.694262278974697E-7
0.5                      101                      3.67021183369523E-7
0.5                      102                      3.646572821512065E-7
0.5                      103                      3.623345242425199E-7
0.5                      104                      3.60030740001324E-7
0.5                      105                      3.5774314194656714E-7
0.5                      106                      3.5548943080589013E-7
0.5                      107                      3.532696065792931E-7
0.5                      108                      3.510836692667762E-7
0.5                      109                      3.4893161886833904E-7
0.5                      110                      3.4681345538398185E-7
0.5                      111                      3.4472917881370456E-7
0.5                      112                      3.426787891575071E-7
0.5                      113                      3.4066228641538974E-7
0.5                      114                      3.3867967058735237E-7
0.5                      115                      3.3673094167339463E-7
0.5                      116                      3.348160996735172E-7
0.5                      117                      3.3293514458771935E-7
0.5                      118                      3.3108807641600154E-7
0.5                      119                      3.2927489515836377E-7
0.5                      120                      3.2749560081480595E-7
0.5                      121                      3.257501933853279E-7
0.5                      122                      3.2403867286992977E-7
0.5                      123                      3.2236103926861166E-7
0.5                      124                      3.2071729258137334E-7
0.5                      125                      3.191074328082151E-7
0.5                      126                      3.174436147998943E-7
0.5                      127                      3.1576445933529534E-7
0.5                      128                      3.1410787315897285E-7
0.5                      129                      3.124738562709273E-7
0.5                      130                      3.108624086711584E-7
0.5                      131                      3.092735303596662E-7
0.5                      132                      3.077072213364506E-7
0.5                      133                      3.0616348160151167E-7
0.5                      134                      3.0464231115484956E-7
0.5                      135                      3.0314370999646434E-7
0.5                      136                      3.016676781263556E-7
0.5                      137                      3.0021421554452344E-7
0.5                      138                      2.9878332225096836E-7
0.5                      139                      2.973749982456897E-7
0.5                      140                      2.9598924352868774E-7
0.5                      141                      2.946260580999627E-7
0.5                      142                      2.932854419595141E-7
0.5                      143                      2.9196739510734243E-7
0.5                      144                      2.906719175434472E-7
0.5                      145                      2.8939900926782905E-7
0.5                      146                      2.881486702804872E-7
0.5                      147                      2.8692090058142243E-7
0.5                      148                      2.856382566121069E-7
0.5                      149                      2.8435645974129487E-7
0.5                      150                      2.8308914800042284E-7
0.5                      151                      2.8183632138949077E-7
0.5                      152                      2.8059797990849857E-7
0.5                      153                      2.793741235574464E-7
0.5                      154                      2.7816475233633426E-7
0.5                      155                      2.7696986624516195E-7
0.5                      156                      2.7578946528392955E-7
0.5                      157                      2.7462354945263743E-7
0.5                      158                      2.73472118751285E-7
0.5                      159                      2.7233517317987266E-7
0.5                      160                      2.7121271273840033E-7
0.5                      161                      2.7010473742686775E-7
0.5                      162                      2.6901124724527525E-7
0.5                      163                      2.679322421936229E-7
0.5                      164                      2.6686772227191044E-7
0.5                      165                      2.658176874801379E-7
0.5                      166                      2.647821378183052E-7
0.5                      167                      2.637610732864126E-7
0.5                      168                      2.6275449388446E-7
0.5                      169                      2.617623996124472E-7
0.5                      170                      2.6070616395298297E-7
0.5                      171                      2.596575262265637E-7
0.5                      172                      2.586164896852783E-7
0.5                      173                      2.575830543291265E-7
0.5                      174                      2.5655722015810817E-7
0.5                      175                      2.555389871722234E-7
0.5                      176                      2.5452835537147245E-7
0.5                      177                      2.5352532475585514E-7
0.5                      178                      2.525298953253712E-7
0.5                      179                      2.51542067080021E-7
0.5                      180                      2.505618400198046E-7
0.5                      181                      2.4958921414472173E-7
0.5                      182                      2.486241894547725E-7
0.5                      183                      2.47666765949957E-7
0.5                      184                      2.4671694363027494E-7
0.5                      185                      2.4577472249572655E-7
0.5                      186                      2.4484010254631154E-7
0.5                      187                      2.439130837820306E-7
0.5                      188                      2.429936662028832E-7
0.5                      189                      2.4208184980886934E-7
0.5                      190                      2.4117763459998916E-7
0.5                      191                      2.4028532645390444E-7
0.5                      192                      2.3942546272658023E-7
0.5                      193                      2.385757178751411E-7
0.5                      194                      2.377360918995868E-7
0.5                      195                      2.3690658479991763E-7
0.5                      196                      2.3608719657613348E-7
0.5                      197                      2.3527792722823414E-7
0.5                      198                      2.3447877675621995E-7
0.5                      199                      2.336897451600907E-7
0.5                      200                      2.3291083243984643E-7
0.5                      201                      2.3214203859548718E-7
0.5                      202                      2.313833636270129E-7
0.5                      203                      2.3063480753442362E-7
0.5                      204                      2.2989637031771933E-7
0.5                      205                      2.2916805197690004E-7
0.5                      206                      2.2844985251196567E-7
0.5                      207                      2.277417719229164E-7
0.5                      208                      2.2704381020975204E-7
0.5                      209                      2.263559673724727E-7
0.5                      210                      2.2567824341107843E-7
0.5                      211                      2.2501063832556898E-7
0.5                      212                      2.2435315211594462E-7
0.5                      213                      2.2368797748097816E-7
0.5                      214                      2.229900823488812E-7
0.5                      215                      2.2229713729995426E-7
0.5                      216                      2.2160914233419716E-7
0.5                      217                      2.2092609745161016E-7
0.5                      218                      2.20248002652193E-7
0.5                      219                      2.195748579359458E-7
0.5                      220                      2.189066633028687E-7
0.5                      221                      2.182434187529614E-7
0.5                      222                      2.175851242862241E-7
0.5                      223                      2.169317799026568E-7
0.5                      224                      2.1628338560225946E-7
0.5                      225                      2.1563994138503197E-7
0.5                      226                      2.1500144725097453E-7
0.5                      227                      2.1436790320008705E-7
0.5                      228                      2.137393092323694E-7
0.5                      229                      2.1311566534782184E-7
0.5                      230                      2.1249697154644412E-7
0.5                      231                      2.1188322782823638E-7
0.5                      232                      2.1127443419319874E-7
0.5                      233                      2.1067059064133085E-7
0.5                      234                      2.1007169717263298E-7
0.5                      235                      2.0946788456449823E-7
0.5                      236                      2.0885634569401042E-7
0.5                      237                      2.08247860529706E-7
0.5                      238                      2.07642429071585E-7
0.5                      239                      2.0704005131964756E-7
0.5                      240                      2.064407272738935E-7
0.5                      241                      2.0584445693432296E-7
0.5                      242                      2.0525124030093578E-7
0.5                      243                      2.0466107737373214E-7
0.5                      244                      2.0407396815271183E-7
0.5                      245                      2.034899126378751E-7
0.5                      246                      2.0290891082922164E-7
0.5                      247                      2.023309627267518E-7
0.5                      248                      2.0175606833046538E-7
0.5                      249                      2.0118422764036232E-7
0.5                      250                      2.0061544065644292E-7
0.5                      251                      2.0004970737870675E-7
0.5                      252                      1.9948702780715414E-7
0.5                      253                      1.98927401941785E-7
0.5                      254                      1.9837082978259916E-7
0.5                      255                      1.9781731132959698E-7
0.5                      256                      1.9726684658277816E-7
0.5                      257                      1.9671943554214274E-7
0.5                      258                      1.9617507820769085E-7
0.5                      259                      1.9563377457942235E-7
0.5                      260                      1.9509552465733741E-7
0.5                      261                      1.945603284414357E-7
0.5                      262                      1.9402818593171766E-7
0.5                      263                      1.93499097128183E-7
0.5                      264                      1.9297306203083182E-7
0.5                      265                      1.9245008063966407E-7
0.5                      266                      1.9193015295467982E-7
0.5                      267                      1.9141327897587894E-7
0.5                      268                      1.9089945870326145E-7
0.5                      269                      1.9038869213682755E-7
0.5                      270                      1.8988097927657704E-7
0.5                      271                      1.8937632012251E-7
0.5                      272                      1.8887471467462648E-7
0.5                      273                      1.8837616293292632E-7
0.5                      274                      1.8788066489740964E-7
0.5                      275                      1.8738822056807637E-7
0.5                      276                      1.8689882994492653E-7
0.5                      277                      1.8641249302796027E-7
0.5                      278                      1.8592920981717738E-7
0.5                      279                      1.854365517059648E-7
0.5                      280                      1.849427528339066E-7
0.5                      281                      1.844512887403812E-7
0.5                      282                      1.8396215942538859E-7
0.5                      283                      1.8347536488892867E-7
0.5                      284                      1.8299090513100153E-7
0.5                      285                      1.8250878015160723E-7
0.5                      286                      1.820289899507456E-7
0.5                      287                      1.815515345284168E-7
0.5                      288                      1.810764138846207E-7
0.5                      289                      1.806036280193574E-7
0.5                      290                      1.8013317693262684E-7
0.5                      291                      1.7966506062442906E-7
0.5                      292                      1.7919927909476408E-7
0.5                      293                      1.7873583234363186E-7
0.5                      294                      1.7827472037103232E-7
0.5                      295                      1.7781594317696566E-7
0.5                      296                      1.7735950076143167E-7
0.5                      297                      1.769053931244305E-7
0.5                      298                      1.764536202659621E-7
0.5                      299                      1.7600418218602635E-7
0.5                      300                      1.7555707888462348E-7
0.5                      301                      1.7511231036175337E-7
0.5                      302                      1.74669876617416E-7
0.5                      303                      1.742297776516113E-7
0.5                      304                      1.7379201346433954E-7
0.5                      305                      1.7335658405560044E-7
0.5                      306                      1.7292348942539413E-7
0.5                      307                      1.724927295737206E-7
0.5                      308                      1.7206430450057976E-7
0.5                      309                      1.7163821420597173E-7
0.5                      310                      1.7121445868989662E-7
0.5                      311                      1.7079303795235415E-7
0.5                      312                      1.7037395199334428E-7
0.5                      313                      1.6995720081286732E-7
0.5                      314                      1.6954278441092306E-7
0.5                      315                      1.6913070278751164E-7
0.5                      316                      1.6872095594263304E-7
0.5                      317                      1.683135438762871E-7
0.5                      318                      1.67908466588474E-7
0.5                      319                      1.6750572407919358E-7
0.5                      320                      1.6710531634844595E-7
0.5                      321                      1.6670724339623115E-7
0.5                      322                      1.6631178450414413E-7
0.5                      323                      1.659216115888312E-7
0.5                      324                      1.6553391745722907E-7
0.5                      325                      1.6514870210933774E-7
0.5                      326                      1.64765965545157E-7
0.5                      327                      1.6438570776468713E-7
0.5                      328                      1.6400792876792806E-7
0.5                      329                      1.6363262855487976E-7
0.5                      330                      1.6325980712554207E-7
0.5                      331                      1.628894644799153E-7
0.5                      332                      1.6252160061799927E-7
0.5                      333                      1.62156215539794E-7
0.5                      334                      1.6179330924529948E-7
0.5                      335                      1.6143288173451574E-7
0.5                      336                      1.6107493300744275E-7
0.5                      337                      1.6071946306408057E-7
0.5                      338                      1.6036647190442907E-7
0.5                      339                      1.6001595952848845E-7
0.5                      340                      1.5966792593625844E-7
0.5                      341                      1.5932237112773937E-7
0.5                      342                      1.58979295102931E-7
0.5                      343                      1.5863869786183337E-7
0.5                      344                      1.5830057940444652E-7
0.5                      345                      1.5796493973077044E-7
0.5                      346                      1.576317788408051E-7
0.5                      347                      1.573010967345506E-7
0.5                      348                      1.5697289341200675E-7
0.5                      349                      1.5664716887317385E-7
0.5                      350                      1.5632392311805151E-7
0.5                      351                      1.5600315614664005E-7
0.5                      352                      1.5568486795893932E-7
0.5                      353                      1.5536905855494938E-7
0.5                      354                      1.5505572793467026E-7
0.5                      355                      1.5474487609810177E-7
0.5                      356                      1.5443650304524418E-7
0.5                      357                      1.5413060877609722E-7
0.5                      358                      1.5382719329066105E-7
0.5                      359                      1.5352625658893573E-7
0.5                      360                      1.5322779867092115E-7
0.5                      361                      1.5293181953661733E-7
0.5                      362                      1.5263831918602417E-7
0.5                      363                      1.5234729761914194E-7
0.5                      364                      1.5205875483597039E-7
0.5                      365                      1.517726908365097E-7
0.5                      366                      1.514759702729203E-7
0.5                      367                      1.511609527368365E-7
0.5                      368                      1.5084692300128848E-7
0.5                      369                      1.5053388106627645E-7
0.5                      370                      1.5022182693180004E-7
0.5                      371                      1.4991076059785957E-7
0.5                      372                      1.4960068206445492E-7
0.5                      373                      1.4929159133158614E-7
0.5                      374                      1.4898348839925324E-7
0.5                      375                      1.48676373267456E-7
0.5                      376                      1.4837024593619472E-7
0.5                      377                      1.4806510640546923E-7
0.5                      378                      1.4776095467527948E-7
0.5                      379                      1.4745779074562571E-7
0.5                      380                      1.4715561461650772E-7
0.5                      381                      1.468544262879256E-7
0.5                      382                      1.4655422575987924E-7
0.5                      383                      1.462550130323687E-7
0.5                      384                      1.4595678810539405E-7
0.5                      385                      1.4565955097895516E-7
0.5                      386                      1.4536330165305217E-7
0.5                      387                      1.45068040127685E-7
0.5                      388                      1.4477376640285355E-7
0.5                      389                      1.4448048047855813E-7
0.5                      390                      1.4418818235479846E-7
0.5                      391                      1.4389687203157455E-7
0.5                      392                      1.4360654950888652E-7
0.5                      393                      1.4331721478673433E-7
0.5                      394                      1.4302886786511797E-7
0.5                      395                      1.427415087440374E-7
0.5                      396                      1.4245513742349266E-7
0.5                      397                      1.4216975390348384E-7
0.5                      398                      1.4188535818401074E-7
0.5                      399                      1.4160195026507356E-7
0.5                      400                      1.4131953014667224E-7
0.5                      401                      1.4103809782880665E-7
0.5                      402                      1.4075765331147692E-7
0.5                      403                      1.4047819659468298E-7
0.5                      404                      1.4019972767842489E-7
0.5                      405                      1.3992224656270267E-7
0.5                      406                      1.396457532475163E-7
0.5                      407                      1.3937024773286562E-7
0.5                      408                      1.39095730018751E-7
0.5                      409                      1.3882220010517204E-7
0.5                      410                      1.38549759112592E-7
0.5                      411                      1.3827835256822307E-7
0.5                      412                      1.3800794023371928E-7
0.5                      413                      1.3773852210908066E-7