% Model:              NP_reactive_flow_Different_injection_TCE_in_Low_Permeable.mph
% Version:            COMSOL 5.2.0.166
% Date:               Jun 15 2020, 02:04
% Table:              Table 61 - NP_retention_mass_lowPM (np_retention_mass_lowPM)
% Q_inject_design        t (s)                    np_retention_mass_lowPM (mol/m)
0.1                      0                        1.6125907100495236E-13
0.1                      1                        2.6976244199411553E-12
0.1                      2                        -2.0394382920910335E-10
0.1                      3                        9.49210160746192E-10
0.1                      4                        -1.7226698672209724E-9
0.1                      5                        -1.844111031102604E-8
0.1                      6                        -2.9839803696261316E-8
0.1                      7                        -1.9449389696865625E-9
0.1                      8                        9.292459729788783E-8
0.1                      9                        2.5541240376735353E-7
0.1                      10                       5.121721955381258E-7
0.1                      11                       8.565114049937668E-7
0.1                      12                       1.2813125808721236E-6
0.1                      13                       1.7859700794490498E-6
0.1                      14                       2.346873760149441E-6
0.1                      15                       2.963978131933175E-6
0.1                      16                       3.6298782643793125E-6
0.1                      17                       4.331238495098993E-6
0.1                      18                       5.0741636331948135E-6
0.1                      19                       5.850896763429519E-6
0.1                      20                       6.656920837422921E-6
0.1                      21                       7.492295542298491E-6
0.1                      22                       8.354492502793215E-6
0.1                      23                       9.240797173706472E-6
0.1                      24                       1.0152805531509514E-5
0.1                      25                       1.1085766977455987E-5
0.1                      26                       1.2035573577868696E-5
0.1                      27                       1.3010254072959592E-5
0.1                      28                       1.4004039533420107E-5
0.1                      29                       1.5015672375638778E-5
0.1                      30                       1.604692978912933E-5
0.1                      31                       1.709573060960817E-5
0.1                      32                       1.816257259374249E-5
0.1                      33                       1.924807336880997E-5
0.1                      34                       2.034952179960382E-5
0.1                      35                       2.1465953707724734E-5
0.1                      36                       2.260072517661265E-5
0.1                      37                       2.375308163971699E-5
0.1                      38                       2.492122758974817E-5
0.1                      39                       2.610587308937433E-5
0.1                      40                       2.7306761308720017E-5
0.1                      41                       2.85244247307023E-5
0.1                      42                       2.9761661628682283E-5
0.1                      43                       3.101797714216739E-5
0.1                      44                       3.2296670557964865E-5
0.1                      45                       3.359628883109976E-5
0.1                      46                       3.4915666364417096E-5
0.1                      47                       3.6255996359250894E-5
0.1                      48                       3.762119916714535E-5
0.1                      49                       3.901002077352988E-5
0.1                      50                       4.0423665386584206E-5
0.1                      51                       4.186098789481705E-5
0.1                      52                       4.331884943018642E-5
0.1                      53                       4.479847295611129E-5
0.1                      54                       4.629987800161293E-5
0.1                      55                       4.782152276140793E-5
0.1                      56                       4.935712865447434E-5
0.1                      57                       5.0907818137370736E-5
0.1                      58                       5.246836828632239E-5
0.1                      59                       5.4039383713594185E-5
0.1                      60                       5.561549735394087E-5
0.1                      61                       5.719621706134801E-5
0.1                      62                       5.8771233922838745E-5
0.1                      63                       6.034207487944814E-5
0.1                      64                       6.191543041747559E-5
0.1                      65                       6.348986662173226E-5
0.1                      66                       6.505912929994819E-5
0.1                      67                       6.662750949484147E-5
0.1                      68                       6.819625163719445E-5
0.1                      69                       6.976300417048037E-5
0.1                      70                       7.132848390711814E-5
0.1                      71                       7.289147889756047E-5
0.1                      72                       7.444690148739485E-5
0.1                      73                       7.599543373368717E-5
0.1                      74                       7.753670936599533E-5
0.1                      75                       7.907000265856777E-5
0.1                      76                       8.059528246514574E-5
0.1                      77                       8.211333725414627E-5
0.1                      78                       8.362422829853378E-5
0.1                      79                       8.512801344353173E-5
0.1                      80                       8.662526230855574E-5
0.1                      81                       8.811684839941974E-5
0.1                      82                       8.960271112828802E-5
0.1                      83                       9.108215128833466E-5
0.1                      84                       9.255490693349241E-5
0.1                      85                       9.402264827712803E-5
0.1                      86                       9.54865034919595E-5
0.1                      87                       9.694406967359742E-5
0.1                      88                       9.839619626311807E-5
0.1                      89                       9.984233154051993E-5
0.1                      90                       1.012823297025686E-4
0.1                      91                       1.027163203233575E-4
0.1                      92                       1.0414565464673985E-4
0.1                      93                       1.0557063499344961E-4
0.1                      94                       1.069909753290017E-4
0.1                      95                       1.0840574317280679E-4
0.1                      96                       1.0981393368526285E-4
0.1                      97                       1.1121525267018104E-4
0.1                      98                       1.126109649188815E-4
0.1                      99                       1.140013559175019E-4
0.1                      100                      1.1538513707647413E-4
0.1                      101                      1.1676066481294528E-4
0.1                      102                      1.1812869894034869E-4
0.1                      103                      1.1948919191535898E-4
0.1                      104                      1.2083760179324415E-4
0.1                      105                      1.2217528421356428E-4
0.1                      106                      1.2350221418949047E-4
0.1                      107                      1.248178216995595E-4
0.1                      108                      1.2612158700445997E-4
0.1                      109                      1.2741217047422624E-4
0.1                      110                      1.2868931586063214E-4
0.1                      111                      1.299529373933298E-4
0.1                      112                      1.312030100704612E-4
0.1                      113                      1.3243835091518148E-4
0.1                      114                      1.336585112572396E-4
0.1                      115                      1.3486604964041171E-4
0.1                      116                      1.3606039425833862E-4
0.1                      117                      1.3724154511102074E-4
0.1                      118                      1.3840446398669402E-4
0.1                      119                      1.3955151647399312E-4
0.1                      120                      1.4068283956065634E-4
0.1                      121                      1.4180167282035454E-4
0.1                      122                      1.4290733743574705E-4
0.1                      123                      1.4399927991061944E-4
0.1                      124                      1.4507853689507076E-4
0.1                      125                      1.4614528128956727E-4
0.1                      126                      1.4719912381476311E-4
0.1                      127                      1.4824092889164145E-4
0.1                      128                      1.492713554964349E-4
0.1                      129                      1.5028980322022412E-4
0.1                      130                      1.51296506754352E-4
0.1                      131                      1.5229190093778324E-4
0.1                      132                      1.5327568747106258E-4
0.1                      133                      1.5424814652013723E-4
0.1                      134                      1.5521054249421294E-4
0.1                      135                      1.5616212959203085E-4
0.1                      136                      1.5710323578915365E-4
0.1                      137                      1.580407941256647E-4
0.1                      138                      1.5897110128861312E-4
0.1                      139                      1.5989415727799922E-4
0.1                      140                      1.608099620938229E-4
0.1                      141                      1.61718515736084E-4
0.1                      142                      1.6261981820478273E-4
0.1                      143                      1.6351430330354953E-4
0.1                      144                      1.6440182102333545E-4
0.1                      145                      1.6528225043250817E-4
0.1                      146                      1.6615559153106753E-4
0.1                      147                      1.6702184431901368E-4
0.1                      148                      1.6788100879634648E-4
0.1                      149                      1.6873577466134493E-4
0.1                      150                      1.695879891127414E-4
0.1                      151                      1.704348763241469E-4
0.1                      152                      1.7127643629556152E-4
0.1                      153                      1.721126690269851E-4
0.1                      154                      1.7294357451841814E-4
0.1                      155                      1.7376985379561236E-4
0.1                      156                      1.745956261527328E-4
0.1                      157                      1.7541752391152953E-4
0.1                      158                      1.7623554707200267E-4
0.1                      159                      1.7704969563415274E-4
0.1                      160                      1.7785996959797934E-4
0.1                      161                      1.7866636896348218E-4
0.1                      162                      1.7947259349661166E-4
0.1                      163                      1.8027674039420492E-4
0.1                      164                      1.810782346568721E-4
0.1                      165                      1.8187707628461268E-4
0.1                      166                      1.8267326527742698E-4
0.1                      167                      1.8346680163531474E-4
0.1                      168                      1.842595152021401E-4
0.1                      169                      1.8505186607926542E-4
0.1                      170                      1.8584254624009678E-4
0.1                      171                      1.8663155568463409E-4
0.1                      172                      1.874188944128778E-4
0.1                      173                      1.882045624248276E-4
0.1                      174                      1.8898997723187707E-4
0.1                      175                      1.8977928086574708E-4
0.1                      176                      1.9056870597538802E-4
0.1                      177                      1.913582525608001E-4
0.1                      178                      1.9214792062198326E-4
0.1                      179                      1.9293771015893696E-4
0.1                      180                      1.9372762117166205E-4
0.1                      181                      1.9451765366015802E-4
0.1                      182                      1.953078076244251E-4
0.1                      183                      1.9609808306446301E-4
0.1                      184                      1.9688847998027177E-4
0.1                      185                      1.9767899837185178E-4
0.1                      186                      1.9846963823920262E-4
0.1                      187                      1.992584258054425E-4
0.1                      188                      2.0004582423472804E-4
0.1                      189                      2.0083287575071773E-4
0.1                      190                      2.0161958035341175E-4
0.1                      191                      2.0240593804281038E-4
0.1                      192                      2.0319194881891328E-4
0.1                      193                      2.0397761268172078E-4
0.1                      194                      2.0476292963123266E-4
0.1                      195                      2.0554789966744903E-4
0.1                      196                      2.063325227903696E-4
0.1                      197                      2.0711679899999477E-4
0.1                      198                      2.0790072829632446E-4
0.1                      199                      2.0868433940342127E-4
0.1                      200                      2.0946856998001743E-4
0.1                      201                      2.1025259925781326E-4
0.1                      202                      2.110364272368087E-4
0.1                      203                      2.1182005391700355E-4
0.1                      204                      2.1260347929839807E-4
0.1                      205                      2.133867033809921E-4
0.1                      206                      2.1416972616478564E-4
0.1                      207                      2.1495254764977885E-4
0.1                      208                      2.1573516783597146E-4
0.1                      209                      2.1651758672336374E-4
0.1                      210                      2.1729980431195542E-4
0.1                      211                      2.1808182060174662E-4
0.1                      212                      2.1886401835851613E-4
0.1                      213                      2.1964662894651942E-4
0.1                      214                      2.2042917614572175E-4
0.1                      215                      2.2121165995612308E-4
0.1                      216                      2.2199408037772356E-4
0.1                      217                      2.2277643741052267E-4
0.1                      218                      2.2355873105452112E-4
0.1                      219                      2.243409613097185E-4
0.1                      220                      2.2512312817611483E-4
0.1                      221                      2.259052316537101E-4
0.1                      222                      2.266872717425045E-4
0.1                      223                      2.2746924844249775E-4
0.1                      224                      2.2825116175369026E-4
0.1                      225                      2.2903639022334545E-4
0.1                      226                      2.2982285154750682E-4
0.1                      227                      2.3060986270290992E-4
0.1                      228                      2.313974236895543E-4
0.1                      229                      2.3218553450743998E-4
0.1                      230                      2.3297419515656723E-4
0.1                      231                      2.3376340563693594E-4
0.1                      232                      2.3455316594854598E-4
0.1                      233                      2.3534347609139734E-4
0.1                      234                      2.3613433606549044E-4
0.1                      235                      2.3692574587082476E-4
0.1                      236                      2.3771770550740033E-4
0.1                      237                      2.385102149752175E-4
0.1                      238                      2.3930327427427612E-4
0.1                      239                      2.4009688340457635E-4
0.1                      240                      2.4089104236611758E-4
0.1                      241                      2.4168575115890044E-4
0.1                      242                      2.4248100978292443E-4
0.1                      243                      2.4327681823819026E-4
0.1                      244                      2.4407317652469732E-4
0.1                      245                      2.4487008464244605E-4
0.1                      246                      2.4566754259143584E-4
0.1                      247                      2.464655503716675E-4
0.1                      248                      2.472641079831398E-4
0.1                      249                      2.480632154258543E-4
0.1                      250                      2.4885795861057916E-4
0.1                      251                      2.496496106758365E-4
0.1                      252                      2.5044118882155134E-4
0.1                      253                      2.512326930477237E-4
0.1                      254                      2.5202412335435375E-4
0.1                      255                      2.5281547974144187E-4
0.1                      256                      2.53606762208987E-4
0.1                      257                      2.5439797075698994E-4
0.1                      258                      2.551891053854506E-4
0.1                      259                      2.5598016609436894E-4
0.1                      260                      2.567711528837449E-4
0.1                      261                      2.575620657535784E-4
0.1                      262                      2.583529047038695E-4
0.1                      263                      2.5914366973461855E-4
0.1                      264                      2.5993436084582514E-4
0.1                      265                      2.6072497803748937E-4
0.1                      266                      2.6151552130961086E-4
0.1                      267                      2.623059906621906E-4
0.1                      268                      2.630963860952273E-4
0.1                      269                      2.638867076087225E-4
0.1                      270                      2.646769552026746E-4
0.1                      271                      2.654671288770846E-4
0.1                      272                      2.6625722863195234E-4
0.1                      273                      2.6704725446727773E-4
0.1                      274                      2.678372063830611E-4
0.1                      275                      2.686260227380452E-4
0.1                      276                      2.69413025791035E-4
0.1                      277                      2.7019974751778746E-4
0.1                      278                      2.709861879183034E-4
0.1                      279                      2.717723469925819E-4
0.1                      280                      2.7255822474062433E-4
0.1                      281                      2.7334382116242945E-4
0.1                      282                      2.7412913625799785E-4
0.1                      283                      2.7491417002732926E-4
0.1                      284                      2.756989224704243E-4
0.1                      285                      2.764833935872819E-4
0.1                      286                      2.7726758337790294E-4
0.1                      287                      2.7805149184228746E-4
0.1                      288                      2.788351189804347E-4
0.1                      289                      2.7961846479234505E-4
0.1                      290                      2.80401529278019E-4
0.1                      291                      2.8118431243745543E-4
0.1                      292                      2.819668142706557E-4
0.1                      293                      2.82749034777619E-4
0.1                      294                      2.8353097395834544E-4
0.1                      295                      2.8431263181283485E-4
0.1                      296                      2.850940083410873E-4
0.1                      297                      2.858751035431029E-4
0.1                      298                      2.866559174188829E-4
0.1                      299                      2.874364499684245E-4
0.1                      300                      2.882165627198812E-4
0.1                      301                      2.8899576662634553E-4
0.1                      302                      2.897746315894095E-4
0.1                      303                      2.9055315760907437E-4
0.1                      304                      2.913313446853388E-4
0.1                      305                      2.9210919281820414E-4
0.1                      306                      2.928867020076692E-4
0.1                      307                      2.9366387225373473E-4
0.1                      308                      2.944407035564004E-4
0.1                      309                      2.9521719591566614E-4
0.1                      310                      2.9599334933153205E-4
0.1                      311                      2.9676916380399826E-4
0.1                      312                      2.975446393330645E-4
0.1                      313                      2.9831977591873157E-4
0.1                      314                      2.990945735609983E-4
0.1                      315                      2.998690322598654E-4
0.1                      316                      3.006431520153326E-4
0.1                      317                      3.0141693282739984E-4
0.1                      318                      3.021903746960676E-4
0.1                      319                      3.029634776213356E-4
0.1                      320                      3.037362416032037E-4
0.1                      321                      3.0450866664167176E-4
0.1                      322                      3.052807527367409E-4
0.1                      323                      3.060524998884088E-4
0.1                      324                      3.0682390809667876E-4
0.1                      325                      3.075949773615475E-4
0.1                      326                      3.083636235357435E-4
0.1                      327                      3.0913172461359344E-4
0.1                      328                      3.098993241307712E-4
0.1                      329                      3.1066642208727824E-4
0.1                      330                      3.1143301848311273E-4
0.1                      331                      3.121991133182762E-4
0.1                      332                      3.129647065927675E-4
0.1                      333                      3.1372979830658783E-4
0.1                      334                      3.144943884597358E-4
0.1                      335                      3.1525847705221295E-4
0.1                      336                      3.1602206408401783E-4
0.1                      337                      3.1678514955515123E-4
0.1                      338                      3.1754773346561295E-4
0.1                      339                      3.183098158154029E-4
0.1                      340                      3.190713966045211E-4
0.1                      341                      3.19832475832968E-4
0.1                      342                      3.205930535007432E-4
0.1                      343                      3.213531296078462E-4
0.1                      344                      3.2211270415427807E-4
0.1                      345                      3.2287177714003827E-4
0.1                      346                      3.236303485651266E-4
0.1                      347                      3.243884184295437E-4
0.1                      348                      3.251459867332884E-4
0.1                      349                      3.25903053476362E-4
0.1                      350                      3.2665961865876406E-4
0.1                      351                      3.274174976190201E-4
0.1                      352                      3.2817558347460126E-4
0.1                      353                      3.2893334968433466E-4
0.1                      354                      3.2969079624822105E-4
0.1                      355                      3.3044792316625935E-4
0.1                      356                      3.3120473043845054E-4
0.1                      357                      3.319612180647933E-4
0.1                      358                      3.327173860452892E-4
0.1                      359                      3.334732343799375E-4
0.1                      360                      3.3422876306873764E-4
0.1                      361                      3.3498397211169053E-4
0.1                      362                      3.3573886150879624E-4
0.1                      363                      3.3649343126005386E-4
0.1                      364                      3.37247681365464E-4
0.1                      365                      3.3800161182502694E-4
0.1                      366                      3.3875522263874164E-4
0.1                      367                      3.395085138066093E-4
0.1                      368                      3.4026148532862897E-4
0.1                      369                      3.410141372048009E-4
0.1                      370                      3.417664694351256E-4
0.1                      371                      3.4251848201960326E-4
0.1                      372                      3.432701749582326E-4
0.1                      373                      3.440215482510144E-4
0.1                      374                      3.44772601897949E-4
0.1                      375                      3.455233358990356E-4
0.1                      376                      3.4627329619477235E-4
0.1                      377                      3.4702252760267634E-4
0.1                      378                      3.477713761793793E-4
0.1                      379                      3.4851984192488163E-4
0.1                      380                      3.4926792483918354E-4
0.1                      381                      3.5001562492228516E-4
0.1                      382                      3.507629421741861E-4
0.1                      383                      3.5150987659488626E-4
0.1                      384                      3.5225642818438574E-4
0.1                      385                      3.53002596942685E-4
0.1                      386                      3.537483828697837E-4
0.1                      387                      3.544937859656818E-4
0.1                      388                      3.552388062303792E-4
0.1                      389                      3.5598344366387624E-4
0.1                      390                      3.567276982661726E-4
0.1                      391                      3.574715700372683E-4
0.1                      392                      3.582150589771638E-4
0.1                      393                      3.589581650858584E-4
0.1                      394                      3.5970088836335235E-4
0.1                      395                      3.604432288096458E-4
0.1                      396                      3.6118518642473945E-4
0.1                      397                      3.6192676120863165E-4
0.1                      398                      3.626679531613237E-4
0.1                      399                      3.6340876228281506E-4
0.1                      400                      3.641491885731056E-4
0.1                      401                      3.6489247470954247E-4
0.1                      402                      3.656419655593921E-4
0.1                      403                      3.663918043134857E-4
0.1                      404                      3.6714199097182085E-4
0.1                      405                      3.6789252553439994E-4
0.1                      406                      3.6864340800122145E-4
0.1                      407                      3.6939463837228526E-4
0.1                      408                      3.701462166475928E-4
0.1                      409                      3.7089814282714284E-4
0.1                      410                      3.7165041691093574E-4
0.1                      411                      3.724030388989715E-4
0.1                      412                      3.731560087912501E-4
0.1                      413                      3.7390932658777154E-4