% Model:              NP_reactive_flow_Different_injection_TCE_in_Low_Permeable.mph
% Version:            COMSOL 5.2.0.166
% Date:               Jun 15 2020, 01:06
% Table:              Table 61 - NP_retention_mass_lowPM (np_retention_mass_lowPM)
% Q_inject_design        t (s)                    np_retention_mass_lowPM (mol/m)
0.5                      0                        2.473327454591028E-13
0.5                      1                        -1.8495542247176693E-8
0.5                      2                        5.060129965075187E-7
0.5                      3                        2.912069195736819E-6
0.5                      4                        6.526801627397507E-6
0.5                      5                        1.0863577383939092E-5
0.5                      6                        1.5701045175648688E-5
0.5                      7                        2.0972355919469632E-5
0.5                      8                        2.6635013219770464E-5
0.5                      9                        3.271691669395865E-5
0.5                      10                       3.9304451791273136E-5
0.5                      11                       4.6442074590631815E-5
0.5                      12                       5.394433890984372E-5
0.5                      13                       6.14972028063262E-5
0.5                      14                       6.900609911340349E-5
0.5                      15                       7.633252100446279E-5
0.5                      16                       8.344712416450144E-5
0.5                      17                       9.03626476675234E-5
0.5                      18                       9.71160367663621E-5
0.5                      19                       1.0371309115606699E-4
0.5                      20                       1.1013639943516344E-4
0.5                      21                       1.1634948569160727E-4
0.5                      22                       1.2228842335188737E-4
0.5                      23                       1.2788729539702602E-4
0.5                      24                       1.3313005422846446E-4
0.5                      25                       1.3802548372102283E-4
0.5                      26                       1.4262465580347055E-4
0.5                      27                       1.4694667958630846E-4
0.5                      28                       1.5103760177716423E-4
0.5                      29                       1.5497862250755303E-4
0.5                      30                       1.5882688604688163E-4
0.5                      31                       1.6256927426329287E-4
0.5                      32                       1.6626032810962914E-4
0.5                      33                       1.6990722602270902E-4
0.5                      34                       1.735263233471535E-4
0.5                      35                       1.7713335771919346E-4
0.5                      36                       1.8074200545271043E-4
0.5                      37                       1.8435105967679307E-4
0.5                      38                       1.8797209201393711E-4
0.5                      39                       1.9163183115953578E-4
0.5                      40                       1.953235736920818E-4
0.5                      41                       1.9901685454643084E-4
0.5                      42                       2.0271186428178896E-4
0.5                      43                       2.0641586959890243E-4
0.5                      44                       2.101338839934534E-4
0.5                      45                       2.1386349224655836E-4
0.5                      46                       2.1759433687260828E-4
0.5                      47                       2.213154128976632E-4
0.5                      48                       2.250343002382624E-4
0.5                      49                       2.2875996146347875E-4
0.5                      50                       2.324907538822791E-4
0.5                      51                       2.3623061483273473E-4
0.5                      52                       2.4000552005598125E-4
0.5                      53                       2.4380228744259538E-4
0.5                      54                       2.4762091699257616E-4
0.5                      55                       2.514614087059245E-4
0.5                      56                       2.553237625826394E-4
0.5                      57                       2.5914368612477286E-4
0.5                      58                       2.629584147500431E-4
0.5                      59                       2.667725157006833E-4
0.5                      60                       2.7058598897669334E-4
0.5                      61                       2.743988345780718E-4
0.5                      62                       2.78204882106143E-4
0.5                      63                       2.8200419833587234E-4
0.5                      64                       2.8579964152950215E-4
0.5                      65                       2.895912116870321E-4
0.5                      66                       2.933789088084612E-4
0.5                      67                       2.971620572100793E-4
0.5                      68                       3.009396931334388E-4
0.5                      69                       3.0471279497630533E-4
0.5                      70                       3.084813627386776E-4
0.5                      71                       3.1224539642055676E-4
0.5                      72                       3.160038783895939E-4
0.5                      73                       3.197440244107839E-4
0.5                      74                       3.234750374913406E-4
0.5                      75                       3.27196917631263E-4
0.5                      76                       3.3090966483055183E-4
0.5                      77                       3.346132790892071E-4
0.5                      78                       3.383086460303062E-4
0.5                      79                       3.419954246464108E-4
0.5                      80                       3.456734330841854E-4
0.5                      81                       3.4934267134362885E-4
0.5                      82                       3.530031394247421E-4
0.5                      83                       3.566538821038939E-4
0.5                      84                       3.6029450378086993E-4
0.5                      85                       3.639257257000156E-4
0.5                      86                       3.6754754786133233E-4
0.5                      87                       3.7115997026481915E-4
0.5                      88                       3.747663634101661E-4
0.5                      89                       3.7837696863590026E-4
0.5                      90                       3.81983193946277E-4
0.5                      91                       3.855850393412951E-4
0.5                      92                       3.8918250482095746E-4
0.5                      93                       3.927755903852614E-4
0.5                      94                       3.963401755374549E-4
0.5                      95                       3.998915890629762E-4
0.5                      96                       4.034306016563444E-4
0.5                      97                       4.0695721331756153E-4
0.5                      98                       4.104714240466266E-4
0.5                      99                       4.1399246806697343E-4
0.5                      100                      4.175179595301918E-4
0.5                      101                      4.210404872427042E-4
0.5                      102                      4.2456005120451224E-4
0.5                      103                      4.280766514156146E-4
0.5                      104                      4.3158347097606124E-4
0.5                      105                      4.3507309000384185E-4
0.5                      106                      4.3855380404759104E-4
0.5                      107                      4.4202561310730724E-4
0.5                      108                      4.454885171829919E-4
0.5                      109                      4.4894347772657687E-4
0.5                      110                      4.5239794110348973E-4
0.5                      111                      4.558463701068555E-4
0.5                      112                      4.592887647366739E-4
0.5                      113                      4.6272512499294404E-4
0.5                      114                      4.661554508756669E-4
0.5                      115                      4.6957589334869305E-4
0.5                      116                      4.7298821784526714E-4
0.5                      117                      4.7639301887593795E-4
0.5                      118                      4.797902964407063E-4
0.5                      119                      4.831800505395726E-4
0.5                      120                      4.8656843215230433E-4
0.5                      121                      4.899569555610395E-4
0.5                      122                      4.933416853205998E-4
0.5                      123                      4.967226214309859E-4
0.5                      124                      5.000997638921986E-4
0.5                      125                      5.034680085266273E-4
0.5                      126                      5.068154868456823E-4
0.5                      127                      5.101527247290809E-4
0.5                      128                      5.134797221768207E-4
0.5                      129                      5.167964791889038E-4
0.5                      130                      5.201030920756388E-4
0.5                      131                      5.234233518540605E-4
0.5                      132                      5.267409979380392E-4
0.5                      133                      5.300560303275763E-4
0.5                      134                      5.333684490226684E-4
0.5                      135                      5.366782540233194E-4
0.5                      136                      5.399760414673598E-4
0.5                      137                      5.43263921741843E-4
0.5                      138                      5.465448680502691E-4
0.5                      139                      5.498188803926377E-4
0.5                      140                      5.530859587689489E-4
0.5                      141                      5.563463501346097E-4
0.5                      142                      5.596002553318437E-4
0.5                      143                      5.628474203528159E-4
0.5                      144                      5.660878451975278E-4
0.5                      145                      5.693215298659787E-4
0.5                      146                      5.725496112551733E-4
0.5                      147                      5.75778160689878E-4
0.5                      148                      5.790024947248085E-4
0.5                      149                      5.822226133599629E-4
0.5                      150                      5.854385165953443E-4
0.5                      151                      5.886502044309494E-4
0.5                      152                      5.918530849710812E-4
0.5                      153                      5.950495711359704E-4
0.5                      154                      5.982401599037117E-4
0.5                      155                      6.014248512743056E-4
0.5                      156                      6.046036452477505E-4
0.5                      157                      6.077764875392904E-4
0.5                      158                      6.10943372661891E-4
0.5                      159                      6.141043299373395E-4
0.5                      160                      6.172593593656337E-4
0.5                      161                      6.204084609467757E-4
0.5                      162                      6.235657318413826E-4
0.5                      163                      6.267564483901358E-4
0.5                      164                      6.29956664718575E-4
0.5                      165                      6.331663808266971E-4
0.5                      166                      6.363855967145056E-4
0.5                      167                      6.396143123819987E-4
0.5                      168                      6.428525278291766E-4
0.5                      169                      6.461002430560388E-4
0.5                      170                      6.493574580625867E-4
0.5                      171                      6.526241728488185E-4
0.5                      172                      6.559003874147359E-4
0.5                      173                      6.591198609594602E-4
0.5                      174                      6.623151659511824E-4
0.5                      175                      6.655047085882384E-4
0.5                      176                      6.68688488870626E-4
0.5                      177                      6.718665067983481E-4
0.5                      178                      6.750387623714051E-4
0.5                      179                      6.782052555897956E-4
0.5                      180                      6.813659864535197E-4
0.5                      181                      6.845209549625768E-4
0.5                      182                      6.876661225008446E-4
0.5                      183                      6.907922104623259E-4
0.5                      184                      6.9390938881564E-4
0.5                      185                      6.970176575607862E-4
0.5                      186                      7.001170166977631E-4
0.5                      187                      7.032074662265708E-4
0.5                      188                      7.062890061472108E-4
0.5                      189                      7.093616364596835E-4
0.5                      190                      7.124253571639874E-4
0.5                      191                      7.154801682601236E-4
0.5                      192                      7.185366433148087E-4
0.5                      193                      7.215899507970177E-4
0.5                      194                      7.246370629772823E-4
0.5                      195                      7.27677979855603E-4
0.5                      196                      7.30712701431981E-4
0.5                      197                      7.337412277064144E-4
0.5                      198                      7.367635586789013E-4
0.5                      199                      7.397796943494453E-4
0.5                      200                      7.427896347180475E-4
0.5                      201                      7.457932827283893E-4
0.5                      202                      7.487904037846621E-4
0.5                      203                      7.517812516958004E-4
0.5                      204                      7.547658264618017E-4
0.5                      205                      7.577441280826704E-4
0.5                      206                      7.60716156558403E-4
0.5                      207                      7.636819118890014E-4
0.5                      208                      7.666413940744656E-4
0.5                      209                      7.695946031147933E-4
0.5                      210                      7.725415390099881E-4
0.5                      211                      7.754855345943765E-4
0.5                      212                      7.784251140327841E-4
0.5                      213                      7.813592847649838E-4
0.5                      214                      7.842880467909739E-4
0.5                      215                      7.872114001107541E-4
0.5                      216                      7.901293447243257E-4
0.5                      217                      7.930418806316882E-4
0.5                      218                      7.959490078328419E-4
0.5                      219                      7.988507263277863E-4
0.5                      220                      8.017459364135393E-4
0.5                      221                      8.046318407243646E-4
0.5                      222                      8.075114278365346E-4
0.5                      223                      8.103846977500491E-4
0.5                      224                      8.132516504649079E-4
0.5                      225                      8.161122859811116E-4
0.5                      226                      8.189666042986623E-4
0.5                      227                      8.218146054175531E-4
0.5                      228                      8.246562893377934E-4
0.5                      229                      8.274916560593762E-4
0.5                      230                      8.303298693522834E-4
0.5                      231                      8.331670033212958E-4
0.5                      232                      8.36000221791788E-4
0.5                      233                      8.388295247637614E-4
0.5                      234                      8.416549122372149E-4
0.5                      235                      8.444763842121499E-4
0.5                      236                      8.472939406885626E-4
0.5                      237                      8.501075816664569E-4
0.5                      238                      8.529173071458342E-4
0.5                      239                      8.557219664749754E-4
0.5                      240                      8.585184781931004E-4
0.5                      241                      8.613100944463967E-4
0.5                      242                      8.640968152348615E-4
0.5                      243                      8.66878640558501E-4
0.5                      244                      8.696555704173052E-4
0.5                      245                      8.724276048112827E-4
0.5                      246                      8.75194743740429E-4
0.5                      247                      8.779569872047449E-4
0.5                      248                      8.8071433520423E-4
0.5                      249                      8.835059972738048E-4
0.5                      250                      8.863157512432991E-4
0.5                      251                      8.891309946370215E-4
0.5                      252                      8.919517274549724E-4
0.5                      253                      8.947779496971546E-4
0.5                      254                      8.976096613635633E-4
0.5                      255                      9.004468624542028E-4
0.5                      256                      9.032895529690706E-4
0.5                      257                      9.0613773290817E-4
0.5                      258                      9.089914022714946E-4
0.5                      259                      9.118505610590506E-4
0.5                      260                      9.14715209270836E-4
0.5                      261                      9.175853469068499E-4
0.5                      262                      9.204609739670935E-4
0.5                      263                      9.233420904515652E-4
0.5                      264                      9.26228696360267E-4
0.5                      265                      9.291207916931979E-4
0.5                      266                      9.320183764503589E-4
0.5                      267                      9.34921450631748E-4
0.5                      268                      9.377421742504941E-4
0.5                      269                      9.405253676821667E-4
0.5                      270                      9.433018590949753E-4
0.5                      271                      9.460716484889207E-4
0.5                      272                      9.488347358639999E-4
0.5                      273                      9.515911212202151E-4
0.5                      274                      9.543408045575639E-4
0.5                      275                      9.570837858760485E-4
0.5                      276                      9.598200651756688E-4
0.5                      277                      9.625496424564221E-4
0.5                      278                      9.65272517718313E-4
0.5                      279                      9.679886909613383E-4
0.5                      280                      9.706981621854981E-4
0.5                      281                      9.734009313907932E-4
0.5                      282                      9.760969985772227E-4
0.5                      283                      9.787863637447886E-4
0.5                      284                      9.814537514114489E-4
0.5                      285                      9.841107944853743E-4
0.5                      286                      9.867591045300203E-4
0.5                      287                      9.893986815453894E-4
0.5                      288                      9.920295255314772E-4
0.5                      289                      9.9465163648829E-4
0.5                      290                      9.972650144158203E-4
0.5                      291                      9.998696593140745E-4
0.5                      292                      0.0010024655711830506
0.5                      293                      0.0010050527500227479
0.5                      294                      0.0010076311958331656
0.5                      295                      0.001010200908614307
0.5                      296                      0.0010127618883661678
0.5                      297                      0.0010153141350887503
0.5                      298                      0.0010178712942365894
0.5                      299                      0.0010204293504081086
0.5                      300                      0.0010229814862418828
0.5                      301                      0.001025527701737915
0.5                      302                      0.001028067996896201
0.5                      303                      0.0010306023717167423
0.5                      304                      0.0010331308261995388
0.5                      305                      0.0010356533603445932
0.5                      306                      0.0010381699741519024
0.5                      307                      0.0010406806676214663
0.5                      308                      0.0010431854407532872
0.5                      309                      0.0010456842935473616
0.5                      310                      0.001048177226003692
0.5                      311                      0.0010506642381222801
0.5                      312                      0.001053150199457946
0.5                      313                      0.0010556386000566153
0.5                      314                      0.0010581227283400086
0.5                      315                      0.0010606025843081302
0.5                      316                      0.001063078167960976
0.5                      317                      0.001065549479298546
0.5                      318                      0.0010680165183208435
0.5                      319                      0.001070479285027867
0.5                      320                      0.001072937779419616
0.5                      321                      0.0010753920014960905
0.5                      322                      0.0010778419512572906
0.5                      323                      0.0010802876287032174
0.5                      324                      0.0010827290338338695
0.5                      325                      0.0010851661666492465
0.5                      326                      0.001087599455293717
0.5                      327                      0.0010900310183046852
0.5                      328                      0.001092458691397821
0.5                      329                      0.0010948824745731266
0.5                      330                      0.0010973023678305983
0.5                      331                      0.0010997183711702362
0.5                      332                      0.0011021304845920444
0.5                      333                      0.0011045387080960175
0.5                      334                      0.0011069430416821603
0.5                      335                      0.0011093434853504706
0.5                      336                      0.0011117400391009473
0.5                      337                      0.001114132702933595
0.5                      338                      0.001116521476848409
0.5                      339                      0.0011189063608453892
0.5                      340                      0.0011212873549245378
0.5                      341                      0.0011237055481346076
0.5                      342                      0.001126129733647156
0.5                      343                      0.0011285560037018428
0.5                      344                      0.0011309843582986655
0.5                      345                      0.0011334147974376267
0.5                      346                      0.001135847321118725
0.5                      347                      0.0011382819293419603
0.5                      348                      0.0011407186221073311
0.5                      349                      0.0011431573994148422
0.5                      350                      0.0011455982612644873
0.5                      351                      0.0011480412076562707
0.5                      352                      0.001150486238590193
0.5                      353                      0.0011529333540662504
0.5                      354                      0.001155382554084447
0.5                      355                      0.0011578338386447808
0.5                      356                      0.0011602872077472492
0.5                      357                      0.0011627426613918593
0.5                      358                      0.001165200199578601
0.5                      359                      0.0011676598223074833
0.5                      360                      0.0011701215295785016
0.5                      361                      0.0011725853213916577
0.5                      362                      0.0011750511977469513
0.5                      363                      0.0011775191586443823
0.5                      364                      0.0011799892040839487
0.5                      365                      0.0011824613340656535
0.5                      366                      0.0011849355485894968
0.5                      367                      0.0011874118476554777
0.5                      368                      0.0011898902312635934
0.5                      369                      0.001192326421926469
0.5                      370                      0.0011946962078770637
0.5                      371                      0.0011970606397855676
0.5                      372                      0.001199419717651986
0.5                      373                      0.0012017734414763116
0.5                      374                      0.0012041218112585524
0.5                      375                      0.0012064648269987034
0.5                      376                      0.0012088024886967679
0.5                      377                      0.001211134796352743
0.5                      378                      0.0012134617499666312
0.5                      379                      0.0012157833495384303
0.5                      380                      0.001218099595068141
0.5                      381                      0.0012204104865557613
0.5                      382                      0.0012227160240012964
0.5                      383                      0.0012250162074047412
0.5                      384                      0.0012273110367660989
0.5                      385                      0.0012296005120853684
0.5                      386                      0.0012318846333625503
0.5                      387                      0.0012341634005976403
0.5                      388                      0.0012364368137906452
0.5                      389                      0.001238704872941562
0.5                      390                      0.0012409675780503911
0.5                      391                      0.001243224929117129
0.5                      392                      0.0012454769261417786
0.5                      393                      0.00124771725124687
0.5                      394                      0.0012499511751476017
0.5                      395                      0.0012521791857204579
0.5                      396                      0.0012544012829654426
0.5                      397                      0.0012566174668825565
0.5                      398                      0.001258827737471793
0.5                      399                      0.0012610320947331638
0.5                      400                      0.0012632305386666579
0.5                      401                      0.0012654230692722803
0.5                      402                      0.001267609686550028
0.5                      403                      0.0012697903904999057
0.5                      404                      0.0012719651811219062
0.5                      405                      0.0012741340584160377
0.5                      406                      0.0012762970223822963
0.5                      407                      0.0012784540730206818
0.5                      408                      0.0012806052103311952
0.5                      409                      0.0012827504343138354
0.5                      410                      0.0012848897449686018
0.5                      411                      0.001287023142295499
0.5                      412                      0.001289150626294519
0.5                      413                      0.001291272196965669
0.5                      414                      0.0012933878543089454
0.5                      415                      0.0012954975983243482