% Model:              NP_reactive_flow_TCE_in_Low_Permeable.mph
% Version:            COMSOL 5.2.0.166
% Date:               Jun 7 2020, 21:56
% Table:              tce_outflow_concentration0 - tce_outflow_concentraion (tce_outflow_concentraion)
% lowPM_per              t (s)                    tce_outflow_concentraion (mol/(m*s))
1.0E-10                  0                        7.99935085499157E-15
1.0E-10                  1                        2.41346224032215E-11
1.0E-10                  2                        -3.4664776685888857E-10
1.0E-10                  3                        2.8076351916203164E-9
1.0E-10                  4                        2.2255752075204073E-8
1.0E-10                  5                        6.288130393860276E-8
1.0E-10                  6                        1.2023927464607743E-7
1.0E-10                  7                        1.86922214782448E-7
1.0E-10                  8                        2.561534719326796E-7
1.0E-10                  9                        3.239724949386424E-7
1.0E-10                  10                       3.8791922741317563E-7
1.0E-10                  11                       4.4667356215398256E-7
1.0E-10                  12                       5.000377451761981E-7
1.0E-10                  13                       5.483196134355208E-7
1.0E-10                  14                       5.920797503417813E-7
1.0E-10                  15                       6.31884145637719E-7
1.0E-10                  16                       6.682959688048672E-7
1.0E-10                  17                       7.021020833208191E-7
1.0E-10                  18                       7.335085311095989E-7
1.0E-10                  19                       7.627093806830597E-7
1.0E-10                  20                       7.900455598317648E-7
1.0E-10                  21                       8.156372229644231E-7
1.0E-10                  22                       8.396824509662164E-7
1.0E-10                  23                       8.624197649691859E-7
1.0E-10                  24                       8.839521880407893E-7
1.0E-10                  25                       9.04400973763966E-7
1.0E-10                  26                       9.239037289277304E-7
1.0E-10                  27                       9.425304273189033E-7
1.0E-10                  28                       9.6034119917925E-7
1.0E-10                  29                       9.774181689199712E-7
1.0E-10                  30                       9.938182476831595E-7
1.0E-10                  31                       1.009572671420708E-6
1.0E-10                  32                       1.0247322862093562E-6
1.0E-10                  33                       1.0393473131494797E-6
1.0E-10                  34                       1.053437209629858E-6
1.0E-10                  35                       1.0670421763005203E-6
1.0E-10                  36                       1.0802089006412661E-6
1.0E-10                  37                       1.0929496779854577E-6
1.0E-10                  38                       1.1052952150414167E-6
1.0E-10                  39                       1.1172775892042616E-6
1.0E-10                  40                       1.1289081217652325E-6
1.0E-10                  41                       1.1402069471883515E-6
1.0E-10                  42                       1.15119787317787E-6
1.0E-10                  43                       1.1618916789083335E-6
1.0E-10                  44                       1.1723019356088546E-6
1.0E-10                  45                       1.1824461696869863E-6
1.0E-10                  46                       1.192364473420377E-6
1.0E-10                  47                       1.2020700605409764E-6
1.0E-10                  48                       1.2115559479668893E-6
1.0E-10                  49                       1.220819308773385E-6
1.0E-10                  50                       1.229860886848332E-6
1.0E-10                  51                       1.2386841126821877E-6
1.0E-10                  52                       1.2473023083488118E-6
1.0E-10                  53                       1.2557086101658819E-6
1.0E-10                  54                       1.263924290624718E-6
1.0E-10                  55                       1.2719603077920075E-6
1.0E-10                  56                       1.2798066299370677E-6
1.0E-10                  57                       1.2875127233075183E-6
1.0E-10                  58                       1.2950591629712313E-6
1.0E-10                  59                       1.3024558010443205E-6
1.0E-10                  60                       1.3097296626263152E-6
1.0E-10                  61                       1.3168655531506113E-6
1.0E-10                  62                       1.3238802554092344E-6
1.0E-10                  63                       1.330776546385913E-6
1.0E-10                  64                       1.3375501258708413E-6
1.0E-10                  65                       1.344216577326812E-6
1.0E-10                  66                       1.3507686522927827E-6
1.0E-10                  67                       1.3572108346034106E-6
1.0E-10                  68                       1.3635493651458112E-6
1.0E-10                  69                       1.3697802822460381E-6
1.0E-10                  70                       1.375911466105133E-6
1.0E-10                  71                       1.3819421662425882E-6
1.0E-10                  72                       1.3878721252286162E-6
1.0E-10                  73                       1.3937086470223282E-6
1.0E-10                  74                       1.399448117738867E-6
1.0E-10                  75                       1.4050934385692106E-6
1.0E-10                  76                       1.410646846842259E-6
1.0E-10                  77                       1.4161066223823045E-6
1.0E-10                  78                       1.4214758199919469E-6
1.0E-10                  79                       1.4267535312998784E-6
1.0E-10                  80                       1.4319397094540833E-6
1.0E-10                  81                       1.437034972145755E-6
1.0E-10                  82                       1.4420389897699741E-6
1.0E-10                  83                       1.4469509929568675E-6
1.0E-10                  84                       1.4517707130446448E-6
1.0E-10                  85                       1.4564984369015668E-6
1.0E-10                  86                       1.4611310920865708E-6
1.0E-10                  87                       1.4656700640325083E-6
1.0E-10                  88                       1.4701057879762339E-6
1.0E-10                  89                       1.474420167618276E-6
1.0E-10                  90                       1.4786153655926917E-6
1.0E-10                  91                       1.4826962845300752E-6
1.0E-10                  92                       1.486669553512351E-6
1.0E-10                  93                       1.4905398166431584E-6
1.0E-10                  94                       1.494313232236282E-6
1.0E-10                  95                       1.4980045440968782E-6
1.0E-10                  96                       1.5016223351163402E-6
1.0E-10                  97                       1.505104881800245E-6
1.0E-10                  98                       1.5083509738702334E-6
1.0E-10                  99                       1.5113977309544455E-6
1.0E-10                  100                      1.513874700989059E-6
1.0E-10                  101                      1.517656866786077E-6
1.0E-10                  102                      1.5209961649536172E-6
1.0E-10                  103                      1.524098714028458E-6
1.0E-10                  104                      1.5269653509016454E-6
1.0E-10                  105                      1.5295347741694484E-6
1.0E-10                  106                      1.5316880632642161E-6
1.0E-10                  107                      1.53372676775447E-6
1.0E-10                  108                      1.5357035429292639E-6
1.0E-10                  109                      1.5375481703212005E-6
1.0E-10                  110                      1.5390091700508705E-6
1.0E-10                  111                      1.5405249228897983E-6
1.0E-10                  112                      1.5419251053698069E-6
1.0E-10                  113                      1.5430846531979772E-6
1.0E-10                  114                      1.5440092844768331E-6
1.0E-10                  115                      1.5446404096857064E-6
1.0E-10                  116                      1.544815651318837E-6
1.0E-10                  117                      1.544475047235841E-6
1.0E-10                  118                      1.5440172633357592E-6
1.0E-10                  119                      1.5433738674412661E-6
1.0E-10                  120                      1.5424129858039192E-6
1.0E-10                  121                      1.5407160383546028E-6
1.0E-10                  122                      1.5389480853033496E-6
1.0E-10                  123                      1.5369280623774802E-6
1.0E-10                  124                      1.5345276188445856E-6
1.0E-10                  125                      1.5316299696484626E-6
1.0E-10                  126                      1.5282201237307907E-6
1.0E-10                  127                      1.5243439266222692E-6
1.0E-10                  128                      1.5199566878420735E-6
1.0E-10                  129                      1.5150307190436284E-6
1.0E-10                  130                      1.509389910844091E-6
1.0E-10                  131                      1.5029726058537168E-6
1.0E-10                  132                      1.4961635679017225E-6
1.0E-10                  133                      1.4888692442493035E-6
1.0E-10                  134                      1.4810080399158776E-6
1.0E-10                  135                      1.4723813837256146E-6
1.0E-10                  136                      1.4630198996505595E-6
1.0E-10                  137                      1.4532128647896693E-6
1.0E-10                  138                      1.4427678438667236E-6
1.0E-10                  139                      1.4316131535075675E-6
1.0E-10                  140                      1.4197345779667125E-6
1.0E-10                  141                      1.4071851095261082E-6
1.0E-10                  142                      1.393952712345579E-6
1.0E-10                  143                      1.3799891159788807E-6
1.0E-10                  144                      1.3652698321020242E-6
1.0E-10                  145                      1.3497931824897121E-6
1.0E-10                  146                      1.3335810597685001E-6
1.0E-10                  147                      1.316663609052731E-6
1.0E-10                  148                      1.2990692665320477E-6
1.0E-10                  149                      1.280821856703367E-6
1.0E-10                  150                      1.2619419582552636E-6
1.0E-10                  151                      1.2424483893876298E-6
1.0E-10                  152                      1.2223579266164255E-6
1.0E-10                  153                      1.2017096053714446E-6
1.0E-10                  154                      1.1805444330477804E-6
1.0E-10                  155                      1.1588783061221124E-6
1.0E-10                  156                      1.1367331475494543E-6
1.0E-10                  157                      1.1141547581090013E-6
1.0E-10                  158                      1.0911619413690496E-6
1.0E-10                  159                      1.067831962117643E-6
1.0E-10                  160                      1.0441613446208248E-6
1.0E-10                  161                      1.0202687527653721E-6
1.0E-10                  162                      9.961399424617659E-7
1.0E-10                  163                      9.71893857733984E-7
1.0E-10                  164                      9.4753331902244E-7
1.0E-10                  165                      9.231487405696605E-7
1.0E-10                  166                      8.987682104634943E-7
1.0E-10                  167                      8.744485998025183E-7
1.0E-10                  168                      8.502475285346933E-7
1.0E-10                  169                      8.26186690150351E-7
1.0E-10                  170                      8.023521184044908E-7
1.0E-10                  171                      7.78735277436345E-7
1.0E-10                  172                      7.5543597042996E-7
1.0E-10                  173                      7.324396586676406E-7
1.0E-10                  174                      7.098254400953479E-7
1.0E-10                  175                      6.875908702224815E-7
1.0E-10                  176                      6.657826804467907E-7
1.0E-10                  177                      6.444120135985489E-7
1.0E-10                  178                      6.235023105290016E-7
1.0E-10                  179                      6.030708372864722E-7
1.0E-10                  180                      5.831230597479494E-7
1.0E-10                  181                      5.636801270157759E-7
1.0E-10                  182                      5.447382290205268E-7
1.0E-10                  183                      5.263113526657392E-7
1.0E-10                  184                      5.083948530046944E-7
1.0E-10                  185                      4.909893377718375E-7
1.0E-10                  186                      4.740909308596558E-7
1.0E-10                  187                      4.5769368802755774E-7
1.0E-10                  188                      4.417938455987811E-7
1.0E-10                  189                      4.263871999343588E-7
1.0E-10                  190                      4.114685195310944E-7
1.0E-10                  191                      3.9703687585767465E-7
1.0E-10                  192                      3.8308050852810673E-7
1.0E-10                  193                      3.696005783232928E-7
1.0E-10                  194                      3.5657931892932833E-7
1.0E-10                  195                      3.4401670383433437E-7
1.0E-10                  196                      3.3189335466829124E-7
1.0E-10                  197                      3.202051911628826E-7
1.0E-10                  198                      3.089359357761197E-7
1.0E-10                  199                      2.9807564822881337E-7
1.0E-10                  200                      2.876145474275052E-7
1.0E-10                  201                      2.7753519148658857E-7
1.0E-10                  202                      2.6783608903871845E-7
1.0E-10                  203                      2.584909526959306E-7
1.0E-10                  204                      2.495044911194535E-7
1.0E-10                  205                      2.4085022854432573E-7
1.0E-10                  206                      2.325295934563746E-7
1.0E-10                  207                      2.2452103947523298E-7
1.0E-10                  208                      2.1682098200634538E-7
1.0E-10                  209                      2.0941433696562084E-7
1.0E-10                  210                      2.0229170247824401E-7
1.0E-10                  211                      1.9544521305465977E-7
1.0E-10                  212                      1.8885896086425109E-7
1.0E-10                  213                      1.8253257109358522E-7
1.0E-10                  214                      1.7644378923308683E-7
1.0E-10                  215                      1.7059684704960583E-7
1.0E-10                  216                      1.6497111249552614E-7
1.0E-10                  217                      1.5956736697376903E-7
1.0E-10                  218                      1.5436967058756298E-7
1.0E-10                  219                      1.4937477712160194E-7
1.0E-10                  220                      1.4457195753363937E-7
1.0E-10                  221                      1.399535205699737E-7
1.0E-10                  222                      1.3551434042124756E-7
1.0E-10                  223                      1.312420803596881E-7
1.0E-10                  224                      1.2713701010516983E-7
1.0E-10                  225                      1.2318338346931442E-7
1.0E-10                  226                      1.1938398481174794E-7
1.0E-10                  227                      1.1572494788563283E-7
1.0E-10                  228                      1.122065876536237E-7
1.0E-10                  229                      1.0881868165334998E-7
1.0E-10                  230                      1.0555881624572685E-7
1.0E-10                  231                      1.0242048326039556E-7
1.0E-10                  232                      9.939838731553812E-8
1.0E-10                  233                      9.648976169479059E-8
1.0E-10                  234                      9.368634178640834E-8
1.0E-10                  235                      9.098864213631555E-8
1.0E-10                  236                      8.838671444905706E-8
1.0E-10                  237                      8.588211646954058E-8
1.0E-10                  238                      8.346624615679944E-8
1.0E-10                  239                      8.113904733686271E-8
1.0E-10                  240                      7.889423460048035E-8
1.0E-10                  241                      7.672999708544192E-8
1.0E-10                  242                      7.464247044757828E-8
1.0E-10                  243                      7.262801757899176E-8
1.0E-10                  244                      7.068520583753653E-8
1.0E-10                  245                      6.880855692457599E-8
1.0E-10                  246                      6.699861659331107E-8
1.0E-10                  247                      6.524924682908102E-8
1.0E-10                  248                      6.356129442331279E-8
1.0E-10                  249                      6.192961841325353E-8
1.0E-10                  250                      6.035404313200753E-8
1.0E-10                  251                      5.8830893572036304E-8
1.0E-10                  252                      5.735889581878513E-8
1.0E-10                  253                      5.59358772871308E-8
1.0E-10                  254                      5.4559428966692646E-8
1.0E-10                  255                      5.3228875553782884E-8
1.0E-10                  256                      5.194066405003489E-8
1.0E-10                  257                      5.0695265208170205E-8
1.0E-10                  258                      4.948893264588407E-8
1.0E-10                  259                      4.832210505679252E-8
1.0E-10                  260                      4.719172941530991E-8
1.0E-10                  261                      4.6097603054189736E-8
1.0E-10                  262                      4.503758337695209E-8
1.0E-10                  263                      4.401077652108504E-8
1.0E-10                  264                      4.301596508906621E-8
1.0E-10                  265                      4.205153720311942E-8
1.0E-10                  266                      4.111720119253278E-8
1.0E-10                  267                      4.0210612058834264E-8
1.0E-10                  268                      3.9331934357540485E-8
1.0E-10                  269                      3.8476698360967376E-8
1.0E-10                  270                      3.764637494324868E-8
1.0E-10                  271                      3.684096410438441E-8
1.0E-10                  272                      3.6093681905083E-8
1.0E-10                  273                      3.538989447733096E-8
1.0E-10                  274                      3.468610704957892E-8
1.0E-10                  275                      3.3982319621826876E-8
1.0E-10                  276                      3.333366265643102E-8
1.0E-10                  277                      3.269753213644651E-8
1.0E-10                  278                      3.2061401616462E-8
1.0E-10                  279                      3.144170022273992E-8
1.0E-10                  280                      3.091073460430133E-8
1.0E-10                  281                      3.037976898586273E-8
1.0E-10                  282                      2.9848803367424144E-8
1.0E-10                  283                      2.931783774898554E-8
1.0E-10                  284                      2.8786872130546952E-8
1.0E-10                  285                      2.8255906512108356E-8
1.0E-10                  286                      2.7724940893669763E-8
1.0E-10                  287                      2.726549182147697E-8
1.0E-10                  288                      2.6819770414032233E-8
1.0E-10                  289                      2.637404900658749E-8
1.0E-10                  290                      2.5928327599142757E-8
1.0E-10                  291                      2.5482606191698016E-8
1.0E-10                  292                      2.5036884784253284E-8
1.0E-10                  293                      2.4591163376808536E-8
1.0E-10                  294                      2.4181304869660365E-8
1.0E-10                  295                      2.3804325981189123E-8
1.0E-10                  296                      2.342734709271787E-8
1.0E-10                  297                      2.305036820424662E-8
1.0E-10                  298                      2.2673389315775367E-8
1.0E-10                  299                      2.2296410427304115E-8
1.0E-10                  300                      2.1919431538832857E-8
1.0E-10                  301                      2.1553868957108128E-8
1.0E-10                  302                      2.1232732686265015E-8
1.0E-10                  303                      2.0911596415421902E-8
1.0E-10                  304                      2.059046014457879E-8
1.0E-10                  305                      2.026932387373568E-8
1.0E-10                  306                      1.994818760289257E-8
1.0E-10                  307                      1.9627051332049453E-8
1.0E-10                  308                      1.9305915061206336E-8
1.0E-10                  309                      1.902531393886441E-8
1.0E-10                  310                      1.874986778648213E-8
1.0E-10                  311                      1.847442163409985E-8
1.0E-10                  312                      1.819897548171757E-8
1.0E-10                  313                      1.7923529329335298E-8
1.0E-10                  314                      1.764808317695302E-8
1.0E-10                  315                      1.7372637024570745E-8
1.0E-10                  316                      1.7118633855102966E-8
1.0E-10                  317                      1.6880812673996766E-8
1.0E-10                  318                      1.6642991492890572E-8
1.0E-10                  319                      1.6405170311784386E-8
1.0E-10                  320                      1.6167349130678192E-8
1.0E-10                  321                      1.5929527949571996E-8
1.0E-10                  322                      1.569170676846581E-8
1.0E-10                  323                      1.5456918941298808E-8
1.0E-10                  324                      1.5233090560124135E-8
1.0E-10                  325                      1.5012434226821E-8
1.0E-10                  326                      1.4794949941389401E-8
1.0E-10                  327                      1.4580637703829339E-8
1.0E-10                  328                      1.4369497514140812E-8
1.0E-10                  329                      1.4161529372323826E-8
1.0E-10                  330                      1.3956733278378369E-8
1.0E-10                  331                      1.3755109232304455E-8
1.0E-10                  332                      1.355665723410208E-8
1.0E-10                  333                      1.3361377283771237E-8
1.0E-10                  334                      1.3169269381311932E-8
1.0E-10                  335                      1.298033352672416E-8
1.0E-10                  336                      1.2794569720007932E-8
1.0E-10                  337                      1.2611977961163239E-8
1.0E-10                  338                      1.2432451151880215E-8
1.0E-10                  339                      1.225601184539394E-8
1.0E-10                  340                      1.2082721867807837E-8
1.0E-10                  341                      1.1912581219121896E-8
1.0E-10                  342                      1.174558989933613E-8
1.0E-10                  343                      1.158174790845053E-8
1.0E-10                  344                      1.1421055246465097E-8
1.0E-10                  345                      1.126351191337984E-8
1.0E-10                  346                      1.1109117909194746E-8
1.0E-10                  347                      1.0957873233909826E-8
1.0E-10                  348                      1.0809777887525075E-8
1.0E-10                  349                      1.0664831870040487E-8
1.0E-10                  350                      1.0523035181456074E-8
1.0E-10                  351                      1.0384387821771829E-8
1.0E-10                  352                      1.024888979098775E-8
1.0E-10                  353                      1.0110904148128345E-8
1.0E-10                  354                      9.975246012233221E-9
1.0E-10                  355                      9.84200332716652E-9
1.0E-10                  356                      9.711176092928246E-9
1.0E-10                  357                      9.5827643095184E-9
1.0E-10                  358                      9.456767976936989E-9
1.0E-10                  359                      9.333187095184E-9
1.0E-10                  360                      9.212021664259443E-9
1.0E-10                  361                      9.093271684163313E-9
1.0E-10                  362                      8.976937154895611E-9
1.0E-10                  363                      8.863018076456343E-9
1.0E-10                  364                      8.751514448845499E-9
1.0E-10                  365                      8.642426272063082E-9
1.0E-10                  366                      8.535753546109099E-9
1.0E-10                  367                      8.42979897646451E-9
1.0E-10                  368                      8.322657197466678E-9
1.0E-10                  369                      8.21728186952254E-9
1.0E-10                  370                      8.113672992632095E-9
1.0E-10                  371                      8.011830566795345E-9
1.0E-10                  372                      7.911754592012285E-9
1.0E-10                  373                      7.81344506828292E-9
1.0E-10                  374                      7.71690199560725E-9
1.0E-10                  375                      7.622125373985268E-9
1.0E-10                  376                      7.529115203416988E-9
1.0E-10                  377                      7.437871483902396E-9
1.0E-10                  378                      7.3483942154415E-9
1.0E-10                  379                      7.260683398034294E-9
1.0E-10                  380                      7.174739031680783E-9
1.0E-10                  381                      7.090561116380965E-9
1.0E-10                  382                      7.005551559217277E-9
1.0E-10                  383                      6.920864448993675E-9
1.0E-10                  384                      6.837470022520995E-9
1.0E-10                  385                      6.7553682797992385E-9
1.0E-10                  386                      6.674559220828402E-9
1.0E-10                  387                      6.595042845608488E-9
1.0E-10                  388                      6.516819154139496E-9
1.0E-10                  389                      6.439888146421428E-9
1.0E-10                  390                      6.36424982245428E-9
1.0E-10                  391                      6.289904182238052E-9
1.0E-10                  392                      6.216851225772749E-9
1.0E-10                  393                      6.145090953058366E-9
1.0E-10                  394                      6.074623364094907E-9
1.0E-10                  395                      6.005448458882369E-9
1.0E-10                  396                      5.937373515588341E-9
1.0E-10                  397                      5.868199232825471E-9
1.0E-10                  398                      5.799990338859587E-9
1.0E-10                  399                      5.732746833690686E-9
1.0E-10                  400                      5.666468717318772E-9
1.0E-10                  401                      5.60115598974384E-9
1.0E-10                  402                      5.536808650965891E-9
1.0E-10                  403                      5.473426700984926E-9
1.0E-10                  404                      5.411010139800949E-9
1.0E-10                  405                      5.349558967413952E-9
1.0E-10                  406                      5.289073183823939E-9
1.0E-10                  407                      5.229552789030913E-9
1.0E-10                  408                      5.17099778303487E-9
1.0E-10                  409                      5.1134081658358114E-9
1.0E-10                  410                      5.056783937433735E-9
1.0E-10                  411                      5.0003677735620634E-9
1.0E-10                  412                      4.943811474524533E-9
1.0E-10                  413                      4.887995113528951E-9
1.0E-10                  414                      4.832918690575313E-9