% Model:              NP_reactive_flow_TCE_in_Low_Permeable.mph
% Version:            COMSOL 5.2.0.166
% Date:               Jun 7 2020, 21:56
% Table:              tce_outflow_concentration1 - tce_outflow_concentraion (tce_outflow_concentraion)
% lowPM_per              t (s)                    tce_outflow_concentraion (mol/(m*s))
1.0E-11                  0                        9.83624972285824E-15
1.0E-11                  1                        2.1627833516891962E-11
1.0E-11                  2                        -2.54261876557094E-10
1.0E-11                  3                        1.4861520212272585E-9
1.0E-11                  4                        1.1345591141185457E-8
1.0E-11                  5                        3.025666366319187E-8
1.0E-11                  6                        5.454420992284991E-8
1.0E-11                  7                        8.06167791063428E-8
1.0E-11                  8                        1.0602136295375168E-7
1.0E-11                  9                        1.2975951529032065E-7
1.0E-11                  10                       1.5173783708923052E-7
1.0E-11                  11                       1.7203796167816903E-7
1.0E-11                  12                       1.907742518373747E-7
1.0E-11                  13                       2.0816896861361492E-7
1.0E-11                  14                       2.244912145334165E-7
1.0E-11                  15                       2.399714912841106E-7
1.0E-11                  16                       2.547750083316076E-7
1.0E-11                  17                       2.6902112284563535E-7
1.0E-11                  18                       2.8280191408218393E-7
1.0E-11                  19                       2.9618827302547323E-7
1.0E-11                  20                       3.0923205918122204E-7
1.0E-11                  21                       3.2197312878115897E-7
1.0E-11                  22                       3.3444478493633813E-7
1.0E-11                  23                       3.4668801205809045E-7
1.0E-11                  24                       3.587237576789827E-7
1.0E-11                  25                       3.705247142663632E-7
1.0E-11                  26                       3.8209664131561417E-7
1.0E-11                  27                       3.9344453462502666E-7
1.0E-11                  28                       4.045931287302616E-7
1.0E-11                  29                       4.155564942365335E-7
1.0E-11                  30                       4.2637801256386806E-7
1.0E-11                  31                       4.370658173539989E-7
1.0E-11                  32                       4.4764491665522524E-7
1.0E-11                  33                       4.581387863077515E-7
1.0E-11                  34                       4.6854943478642425E-7
1.0E-11                  35                       4.788936287009841E-7
1.0E-11                  36                       4.891749928066198E-7
1.0E-11                  37                       4.99397836202983E-7
1.0E-11                  38                       5.095691046852378E-7
1.0E-11                  39                       5.196904889597797E-7
1.0E-11                  40                       5.297669382950511E-7
1.0E-11                  41                       5.398063589294036E-7
1.0E-11                  42                       5.498095928648503E-7
1.0E-11                  43                       5.59782110612287E-7
1.0E-11                  44                       5.697218093550121E-7
1.0E-11                  45                       5.796277602419548E-7
1.0E-11                  46                       5.89490882349455E-7
1.0E-11                  47                       5.993043058993767E-7
1.0E-11                  48                       6.090562995068789E-7
1.0E-11                  49                       6.187189521445989E-7
1.0E-11                  50                       6.282827925906113E-7
1.0E-11                  51                       6.37709079177603E-7
1.0E-11                  52                       6.469669863878924E-7
1.0E-11                  53                       6.560325414278112E-7
1.0E-11                  54                       6.648440740001914E-7
1.0E-11                  55                       6.733860810092347E-7
1.0E-11                  56                       6.816140009972788E-7
1.0E-11                  57                       6.894750932052317E-7
1.0E-11                  58                       6.969590488666219E-7
1.0E-11                  59                       7.040165644288044E-7
1.0E-11                  60                       7.106306548514711E-7
1.0E-11                  61                       7.167843172000499E-7
1.0E-11                  62                       7.224539560718155E-7
1.0E-11                  63                       7.276424539242434E-7
1.0E-11                  64                       7.323427781912183E-7
1.0E-11                  65                       7.365655184338714E-7
1.0E-11                  66                       7.403165720616956E-7
1.0E-11                  67                       7.436176179605678E-7
1.0E-11                  68                       7.464892634594653E-7
1.0E-11                  69                       7.489478336365157E-7
1.0E-11                  70                       7.510380416093521E-7
1.0E-11                  71                       7.527711991446978E-7
1.0E-11                  72                       7.541813955634418E-7
1.0E-11                  73                       7.550477674485745E-7
1.0E-11                  74                       7.558509784904204E-7
1.0E-11                  75                       7.566054608851626E-7
1.0E-11                  76                       7.572163585386609E-7
1.0E-11                  77                       7.576426793188997E-7
1.0E-11                  78                       7.578886100922051E-7
1.0E-11                  79                       7.579787094243863E-7
1.0E-11                  80                       7.579297250053599E-7
1.0E-11                  81                       7.577780792013726E-7
1.0E-11                  82                       7.575932824160794E-7
1.0E-11                  83                       7.571372237200897E-7
1.0E-11                  84                       7.565476096740426E-7
1.0E-11                  85                       7.558820698884062E-7
1.0E-11                  86                       7.551619756657015E-7
1.0E-11                  87                       7.543938838705326E-7
1.0E-11                  88                       7.535794432952745E-7
1.0E-11                  89                       7.527256277812775E-7
1.0E-11                  90                       7.518404831144289E-7
1.0E-11                  91                       7.509291556232253E-7
1.0E-11                  92                       7.499945079607217E-7
1.0E-11                  93                       7.490383579846443E-7
1.0E-11                  94                       7.480623119094337E-7
1.0E-11                  95                       7.470680219274127E-7
1.0E-11                  96                       7.460570008794714E-7
1.0E-11                  97                       7.450305129545628E-7
1.0E-11                  98                       7.439895519463078E-7
1.0E-11                  99                       7.429348435329977E-7
1.0E-11                  100                      7.419050063834705E-7
1.0E-11                  101                      7.408365918391267E-7
1.0E-11                  102                      7.397009705825106E-7
1.0E-11                  103                      7.385221783264406E-7
1.0E-11                  104                      7.373197454183494E-7
1.0E-11                  105                      7.361039093543511E-7
1.0E-11                  106                      7.348783124308384E-7
1.0E-11                  107                      7.336417729661212E-7
1.0E-11                  108                      7.323913597919608E-7
1.0E-11                  109                      7.311247491817273E-7
1.0E-11                  110                      7.298400482336793E-7
1.0E-11                  111                      7.285346855664908E-7
1.0E-11                  112                      7.272050571144226E-7
1.0E-11                  113                      7.258472542070606E-7
1.0E-11                  114                      7.244576991793211E-7
1.0E-11                  115                      7.230332343426721E-7
1.0E-11                  116                      7.215711923725612E-7
1.0E-11                  117                      7.200693473082492E-7
1.0E-11                  118                      7.185270753195863E-7
1.0E-11                  119                      7.169455212865317E-7
1.0E-11                  120                      7.153078494453642E-7
1.0E-11                  121                      7.136091216251132E-7
1.0E-11                  122                      7.118501488041026E-7
1.0E-11                  123                      7.100341436067067E-7
1.0E-11                  124                      7.081655484795991E-7
1.0E-11                  125                      7.062493210056204E-7
1.0E-11                  126                      7.042875813054955E-7
1.0E-11                  127                      7.022878211461961E-7
1.0E-11                  128                      7.002515613392773E-7
1.0E-11                  129                      6.98184081111008E-7
1.0E-11                  130                      6.960933859374442E-7
1.0E-11                  131                      6.939796923549003E-7
1.0E-11                  132                      6.91842034573019E-7
1.0E-11                  133                      6.896811818194836E-7
1.0E-11                  134                      6.874974894281224E-7
1.0E-11                  135                      6.852905299186049E-7
1.0E-11                  136                      6.830614632796323E-7
1.0E-11                  137                      6.808135801000599E-7
1.0E-11                  138                      6.785447423111521E-7
1.0E-11                  139                      6.762549499129082E-7
1.0E-11                  140                      6.739542138980792E-7
1.0E-11                  141                      6.716373207569E-7
1.0E-11                  142                      6.69304195666297E-7
1.0E-11                  143                      6.669671795763918E-7
1.0E-11                  144                      6.646267382277732E-7
1.0E-11                  145                      6.622789039775716E-7
1.0E-11                  146                      6.599310859768347E-7
1.0E-11                  147                      6.575934675877747E-7
1.0E-11                  148                      6.552582435900457E-7
1.0E-11                  149                      6.529267290746885E-7
1.0E-11                  150                      6.506110129386639E-7
1.0E-11                  151                      6.483041927181583E-7
1.0E-11                  152                      6.460062684131733E-7
1.0E-11                  153                      6.437218667175828E-7
1.0E-11                  154                      6.414498012214758E-7
1.0E-11                  155                      6.391893447045787E-7
1.0E-11                  156                      6.369404971668915E-7
1.0E-11                  157                      6.347032586084136E-7
1.0E-11                  158                      6.324776290291456E-7
1.0E-11                  159                      6.302632590563593E-7
1.0E-11                  160                      6.280591745453052E-7
1.0E-11                  161                      6.258662846798056E-7
1.0E-11                  162                      6.236845894598602E-7
1.0E-11                  163                      6.215140888854687E-7
1.0E-11                  164                      6.193547829566322E-7
1.0E-11                  165                      6.172066716733492E-7
1.0E-11                  166                      6.150732108157673E-7
1.0E-11                  167                      6.129538717439689E-7
1.0E-11                  168                      6.108471596141167E-7
1.0E-11                  169                      6.087530744262115E-7
1.0E-11                  170                      6.066716161802526E-7
1.0E-11                  171                      6.046027848762405E-7
1.0E-11                  172                      6.025471648171293E-7
1.0E-11                  173                      6.00511604221313E-7
1.0E-11                  174                      5.984907392625642E-7
1.0E-11                  175                      5.964845699408827E-7
1.0E-11                  176                      5.944930962562691E-7
1.0E-11                  177                      5.925163182087224E-7
1.0E-11                  178                      5.905542357982441E-7
1.0E-11                  179                      5.886064550844923E-7
1.0E-11                  180                      5.866728157283438E-7
1.0E-11                  181                      5.847536511944429E-7
1.0E-11                  182                      5.828489614827887E-7
1.0E-11                  183                      5.80958746593381E-7
1.0E-11                  184                      5.790830065262209E-7
1.0E-11                  185                      5.772217412813072E-7
1.0E-11                  186                      5.753651071883819E-7
1.0E-11                  187                      5.735193871070603E-7
1.0E-11                  188                      5.716852977374887E-7
1.0E-11                  189                      5.698628390796679E-7
1.0E-11                  190                      5.680520111335973E-7
1.0E-11                  191                      5.662528138992773E-7
1.0E-11                  192                      5.644612887361859E-7
1.0E-11                  193                      5.626715102412676E-7
1.0E-11                  194                      5.608900122977911E-7
1.0E-11                  195                      5.591167949057575E-7
1.0E-11                  196                      5.573518580651662E-7
1.0E-11                  197                      5.555952017760176E-7
1.0E-11                  198                      5.538468260383112E-7
1.0E-11                  199                      5.52100626904608E-7
1.0E-11                  200                      5.50358858525823E-7
1.0E-11                  201                      5.486231834601913E-7
1.0E-11                  202                      5.46893601707714E-7
1.0E-11                  203                      5.451701132683902E-7
1.0E-11                  204                      5.434527181422204E-7
1.0E-11                  205                      5.417408715521922E-7
1.0E-11                  206                      5.400320917172688E-7
1.0E-11                  207                      5.383285055487195E-7
1.0E-11                  208                      5.366301130465441E-7
1.0E-11                  209                      5.349369142107426E-7
1.0E-11                  210                      5.332489090413151E-7
1.0E-11                  211                      5.31566097538261E-7
1.0E-11                  212                      5.298881186098944E-7
1.0E-11                  213                      5.282149562342279E-7
1.0E-11                  214                      5.265468193147393E-7
1.0E-11                  215                      5.248837078514291E-7
1.0E-11                  216                      5.232256218442971E-7
1.0E-11                  217                      5.215725612933434E-7
1.0E-11                  218                      5.199245328833405E-7
1.0E-11                  219                      5.182819794967462E-7
1.0E-11                  220                      5.166445713971059E-7
1.0E-11                  221                      5.150123085844206E-7
1.0E-11                  222                      5.133851910586893E-7
1.0E-11                  223                      5.117632188199124E-7
1.0E-11                  224                      5.1014639186809E-7
1.0E-11                  225                      5.085350396074774E-7
1.0E-11                  226                      5.069294137742231E-7
1.0E-11                  227                      5.053291486726147E-7
1.0E-11                  228                      5.037342443026521E-7
1.0E-11                  229                      5.02144700664335E-7
1.0E-11                  230                      5.005605177576638E-7
1.0E-11                  231                      4.989816955826382E-7
1.0E-11                  232                      4.974088978570916E-7
1.0E-11                  233                      4.958417674200705E-7
1.0E-11                  234                      4.942802065901636E-7
1.0E-11                  235                      4.927242153673707E-7
1.0E-11                  236                      4.911737937516923E-7
1.0E-11                  237                      4.896289417431279E-7
1.0E-11                  238                      4.880897582190622E-7
1.0E-11                  239                      4.865564740391656E-7
1.0E-11                  240                      4.850288649296487E-7
1.0E-11                  241                      4.835069308905111E-7
1.0E-11                  242                      4.819906719217534E-7
1.0E-11                  243                      4.804800880233752E-7
1.0E-11                  244                      4.789751791953765E-7
1.0E-11                  245                      4.774756845758386E-7
1.0E-11                  246                      4.7598166149643944E-7
1.0E-11                  247                      4.7449320989763507E-7
1.0E-11                  248                      4.730103297794255E-7
1.0E-11                  249                      4.71533021141811E-7
1.0E-11                  250                      4.700612839847913E-7
1.0E-11                  251                      4.6859498610457243E-7
1.0E-11                  252                      4.671330070102869E-7
1.0E-11                  253                      4.656762444648386E-7
1.0E-11                  254                      4.6422469846822764E-7
1.0E-11                  255                      4.627783690204541E-7
1.0E-11                  256                      4.6133725612151775E-7
1.0E-11                  257                      4.599013597714187E-7
1.0E-11                  258                      4.584696423567118E-7
1.0E-11                  259                      4.5704180094512035E-7
1.0E-11                  260                      4.55618625678511E-7
1.0E-11                  261                      4.542001165568844E-7
1.0E-11                  262                      4.5278627358023996E-7
1.0E-11                  263                      4.5137709674857803E-7
1.0E-11                  264                      4.499725860618985E-7
1.0E-11                  265                      4.4857037611769913E-7
1.0E-11                  266                      4.4717206029423003E-7
1.0E-11                  267                      4.457777486602157E-7
1.0E-11                  268                      4.4438744121565613E-7
1.0E-11                  269                      4.43001137960551E-7
1.0E-11                  270                      4.416188388949008E-7
1.0E-11                  271                      4.402396529207035E-7
1.0E-11                  272                      4.3886246374007713E-7
1.0E-11                  273                      4.3748858174665284E-7
1.0E-11                  274                      4.3611800694043107E-7
1.0E-11                  275                      4.3475073932141145E-7
1.0E-11                  276                      4.3338677888959424E-7
1.0E-11                  277                      4.320261256449791E-7
1.0E-11                  278                      4.3066679314039777E-7
1.0E-11                  279                      4.2930961741397974E-7
1.0E-11                  280                      4.2795506358188385E-7
1.0E-11                  281                      4.266031316441103E-7
1.0E-11                  282                      4.252538216006588E-7
1.0E-11                  283                      4.2390713345152957E-7
1.0E-11                  284                      4.2256261559356003E-7
1.0E-11                  285                      4.212185859558804E-7
1.0E-11                  286                      4.198765312908815E-7
1.0E-11                  287                      4.1853645159856386E-7
1.0E-11                  288                      4.171983468789274E-7
1.0E-11                  289                      4.158622171319721E-7
1.0E-11                  290                      4.145280623576978E-7
1.0E-11                  291                      4.1319454018458554E-7
1.0E-11                  292                      4.1186170162077887E-7
1.0E-11                  293                      4.105302415083226E-7
1.0E-11                  294                      4.092001598472168E-7
1.0E-11                  295                      4.078714566374616E-7
1.0E-11                  296                      4.065441318790566E-7
1.0E-11                  297                      4.052181042000289E-7
1.0E-11                  298                      4.038913699380263E-7
1.0E-11                  299                      4.025654490816139E-7
1.0E-11                  300                      4.0124034163079155E-7
1.0E-11                  301                      3.999160475855593E-7
1.0E-11                  302                      3.985925669459171E-7
1.0E-11                  303                      3.9726989971186503E-7
1.0E-11                  304                      3.959471658026191E-7
1.0E-11                  305                      3.9462382672290644E-7
1.0E-11                  306                      3.933007605593854E-7
1.0E-11                  307                      3.9197796731205623E-7
1.0E-11                  308                      3.906554469809192E-7
1.0E-11                  309                      3.8933319956597383E-7
1.0E-11                  310                      3.880112250672203E-7
1.0E-11                  311                      3.866878286863436E-7
1.0E-11                  312                      3.8536399198625676E-7
1.0E-11                  313                      3.8403991276191984E-7
1.0E-11                  314                      3.827155910133322E-7
1.0E-11                  315                      3.8139102674049374E-7
1.0E-11                  316                      3.8006621994340495E-7
1.0E-11                  317                      3.78740671368222E-7
1.0E-11                  318                      3.774134017037526E-7
1.0E-11                  319                      3.760854060209784E-7
1.0E-11                  320                      3.7475668431989935E-7
1.0E-11                  321                      3.734272366005159E-7
1.0E-11                  322                      3.7209706286282703E-7
1.0E-11                  323                      3.7076616310683397E-7
1.0E-11                  324                      3.694333873265643E-7
1.0E-11                  325                      3.6809905944943065E-7
1.0E-11                  326                      3.667635673549712E-7
1.0E-11                  327                      3.654269110431858E-7
1.0E-11                  328                      3.640890905140746E-7
1.0E-11                  329                      3.6275010576763764E-7
1.0E-11                  330                      3.614097832681972E-7
1.0E-11                  331                      3.600669983447564E-7
1.0E-11                  332                      3.5872267456613727E-7
1.0E-11                  333                      3.5737681193233977E-7
1.0E-11                  334                      3.560294104433636E-7
1.0E-11                  335                      3.5468047009920895E-7
1.0E-11                  336                      3.5332999089987596E-7
1.0E-11                  337                      3.5197737717234666E-7
1.0E-11                  338                      3.506225170313136E-7
1.0E-11                  339                      3.492658182570477E-7
1.0E-11                  340                      3.479072808495486E-7
1.0E-11                  341                      3.4654690480881644E-7
1.0E-11                  342                      3.4518469013485113E-7
1.0E-11                  343                      3.438206368276528E-7
1.0E-11                  344                      3.424539140599785E-7
1.0E-11                  345                      3.4108510928151647E-7
1.0E-11                  346                      3.397142404901696E-7
1.0E-11                  347                      3.3834130768593774E-7
1.0E-11                  348                      3.369663108688209E-7
1.0E-11                  349                      3.355892500388193E-7
1.0E-11                  350                      3.3420991740634705E-7
1.0E-11                  351                      3.3282809657246025E-7
1.0E-11                  352                      3.314440607183437E-7
1.0E-11                  353                      3.3005780984399747E-7
1.0E-11                  354                      3.2866934394942175E-7
1.0E-11                  355                      3.2727866303461614E-7
1.0E-11                  356                      3.2588576709958096E-7
1.0E-11                  357                      3.2449043428377187E-7
1.0E-11                  358                      3.230927686626647E-7
1.0E-11                  359                      3.216928142488752E-7
1.0E-11                  360                      3.202905710424036E-7
1.0E-11                  361                      3.188860390432499E-7
1.0E-11                  362                      3.174792182514137E-7
1.0E-11                  363                      3.16070115054682E-7
1.0E-11                  364                      3.146587491511217E-7
1.0E-11                  365                      3.132451025271899E-7
1.0E-11                  366                      3.1182917518288646E-7
1.0E-11                  367                      3.1041096711821165E-7
1.0E-11                  368                      3.08990478333165E-7
1.0E-11                  369                      3.0756770882774716E-7
1.0E-11                  370                      3.061428738816219E-7
1.0E-11                  371                      3.047159490220152E-7
1.0E-11                  372                      3.032868348674761E-7
1.0E-11                  373                      3.0185553141800406E-7
1.0E-11                  374                      3.0042203867359985E-7
1.0E-11                  375                      2.98986356634263E-7
1.0E-11                  376                      2.9754852485795396E-7
1.0E-11                  377                      2.961091198386982E-7
1.0E-11                  378                      2.9466769534505124E-7
1.0E-11                  379                      2.9322425137701303E-7
1.0E-11                  380                      2.917787879345838E-7
1.0E-11                  381                      2.9033130501776324E-7
1.0E-11                  382                      2.888818026265517E-7
1.0E-11                  383                      2.8743071352489887E-7
1.0E-11                  384                      2.8597824372341574E-7
1.0E-11                  385                      2.8452400483712756E-7
1.0E-11                  386                      2.8306799686603427E-7
1.0E-11                  387                      2.816102198101356E-7
1.0E-11                  388                      2.801506736694322E-7
1.0E-11                  389                      2.786893584439236E-7
1.0E-11                  390                      2.7722737387179754E-7
1.0E-11                  391                      2.7576404051147525E-7
1.0E-11                  392                      2.742992615904992E-7
1.0E-11                  393                      2.728330371088693E-7
1.0E-11                  394                      2.7136536706658553E-7
1.0E-11                  395                      2.69896251463648E-7
1.0E-11                  396                      2.684261249377668E-7
1.0E-11                  397                      2.669557041750485E-7
1.0E-11                  398                      2.654842230512427E-7
1.0E-11                  399                      2.6401168156634947E-7
1.0E-11                  400                      2.625380797203687E-7
1.0E-11                  401                      2.610634175133006E-7
1.0E-11                  402                      2.595876949451447E-7
1.0E-11                  403                      2.5811210621204844E-7
1.0E-11                  404                      2.5663624625805323E-7
1.0E-11                  405                      2.551597631741862E-7
1.0E-11                  406                      2.53682656960447E-7
1.0E-11                  407                      2.52204927616836E-7
1.0E-11                  408                      2.5072657514335306E-7
1.0E-11                  409                      2.4924786672978037E-7
1.0E-11                  410                      2.4777017323854914E-7
1.0E-11                  411                      2.462923383464735E-7
1.0E-11                  412                      2.448143620535534E-7
1.0E-11                  413                      2.433362443597889E-7
1.0E-11                  414                      2.4185798526517994E-7
1.0E-11                  415                      2.4037958476972675E-7