% Model:              NP_reactive_flow_Different_injection_TCE_in_Low_Permeable2.mph
% Version:            COMSOL 5.2.0.166
% Date:               Jun 15 2020, 01:31
% Table:              tce_outflow_concentration0.02 - tce_outflow_concentraion (tce_outflow_concentraion)
% lowPM_per              t (s)                    tce_outflow_concentraion (mol/(m*s))
1.0E-12                  0                        1.1164876454314259E-14
1.0E-12                  1                        2.2028579956374606E-11
1.0E-12                  2                        -2.3445327761745755E-10
1.0E-12                  3                        1.4794004386052273E-9
1.0E-12                  4                        1.0470997588346174E-8
1.0E-12                  5                        2.7127223262823716E-8
1.0E-12                  6                        4.7744958806496586E-8
1.0E-12                  7                        6.897898417697084E-8
1.0E-12                  8                        8.875530197139668E-8
1.0E-12                  9                        1.0641804071983179E-7
1.0E-12                  10                       1.2212511422940898E-7
1.0E-12                  11                       1.360822657108855E-7
1.0E-12                  12                       1.4850789604857608E-7
1.0E-12                  13                       1.5966391121315503E-7
1.0E-12                  14                       1.6980492102971747E-7
1.0E-12                  15                       1.7914001013880388E-7
1.0E-12                  16                       1.8782826137107455E-7
1.0E-12                  17                       1.9600109034842067E-7
1.0E-12                  18                       2.0376053869411268E-7
1.0E-12                  19                       2.111878888998716E-7
1.0E-12                  20                       2.1834051041598853E-7
1.0E-12                  21                       2.252550205285817E-7
1.0E-12                  22                       2.3195540663528438E-7
1.0E-12                  23                       2.384607057544051E-7
1.0E-12                  24                       2.447886935253915E-7
1.0E-12                  25                       2.5097752976959214E-7
1.0E-12                  26                       2.570272845663693E-7
1.0E-12                  27                       2.62924183462291E-7
1.0E-12                  28                       2.6867520655556337E-7
1.0E-12                  29                       2.742826693289546E-7
1.0E-12                  30                       2.797756561946142E-7
1.0E-12                  31                       2.8516184314531095E-7
1.0E-12                  32                       2.90472432881397E-7
1.0E-12                  33                       2.957328633694972E-7
1.0E-12                  34                       3.009545028410864E-7
1.0E-12                  35                       3.061664106304052E-7
1.0E-12                  36                       3.11371533850083E-7
1.0E-12                  37                       3.165800684406784E-7
1.0E-12                  38                       3.2179312382344924E-7
1.0E-12                  39                       3.27005552263053E-7
1.0E-12                  40                       3.322093422323811E-7
1.0E-12                  41                       3.373873067171227E-7
1.0E-12                  42                       3.425308928675742E-7
1.0E-12                  43                       3.476103132674168E-7
1.0E-12                  44                       3.5260977521051533E-7
1.0E-12                  45                       3.5750899765243157E-7
1.0E-12                  46                       3.6226405241701645E-7
1.0E-12                  47                       3.6686965929433954E-7
1.0E-12                  48                       3.7129042665331105E-7
1.0E-12                  49                       3.7550228115058796E-7
1.0E-12                  50                       3.794954886400844E-7
1.0E-12                  51                       3.8324580711338587E-7
1.0E-12                  52                       3.8675277139509406E-7
1.0E-12                  53                       3.900098623910614E-7
1.0E-12                  54                       3.9302084934845624E-7
1.0E-12                  55                       3.9579110364383176E-7
1.0E-12                  56                       3.983315224854702E-7
1.0E-12                  57                       4.0066278665988905E-7
1.0E-12                  58                       4.0279034761998276E-7
1.0E-12                  59                       4.047305172961025E-7
1.0E-12                  60                       4.0651860033397807E-7
1.0E-12                  61                       4.0818172864060796E-7
1.0E-12                  62                       4.097450505745182E-7
1.0E-12                  63                       4.11231419390799E-7
1.0E-12                  64                       4.1266966328531357E-7
1.0E-12                  65                       4.1407902901878236E-7
1.0E-12                  66                       4.1545896382431996E-7
1.0E-12                  67                       4.168031667721359E-7
1.0E-12                  68                       4.1810429886402786E-7
1.0E-12                  69                       4.1923996335162107E-7
1.0E-12                  70                       4.205435597454776E-7
1.0E-12                  71                       4.218063437857283E-7
1.0E-12                  72                       4.22937363321876E-7
1.0E-12                  73                       4.2423082702653984E-7
1.0E-12                  74                       4.2545418436364043E-7
1.0E-12                  75                       4.2667249772500107E-7
1.0E-12                  76                       4.279219750896553E-7
1.0E-12                  77                       4.290586213153201E-7
1.0E-12                  78                       4.301493645873697E-7
1.0E-12                  79                       4.312245587042072E-7
1.0E-12                  80                       4.322864323240704E-7
1.0E-12                  81                       4.333311452584913E-7
1.0E-12                  82                       4.343618700193815E-7
1.0E-12                  83                       4.353870402253885E-7
1.0E-12                  84                       4.3641032889585037E-7
1.0E-12                  85                       4.374286661162007E-7
1.0E-12                  86                       4.3843547112462526E-7
1.0E-12                  87                       4.394234338557955E-7
1.0E-12                  88                       4.4040700963528955E-7
1.0E-12                  89                       4.4134080524802217E-7
1.0E-12                  90                       4.4220433876089387E-7
1.0E-12                  91                       4.430038155473093E-7
1.0E-12                  92                       4.4374513786195537E-7
1.0E-12                  93                       4.444287728819462E-7
1.0E-12                  94                       4.4505174797291873E-7
1.0E-12                  95                       4.456108951047856E-7
1.0E-12                  96                       4.4610464828548004E-7
1.0E-12                  97                       4.4653114608968765E-7
1.0E-12                  98                       4.4688562704400206E-7
1.0E-12                  99                       4.471603785459383E-7
1.0E-12                  100                      4.473467136201646E-7
1.0E-12                  101                      4.474370679945889E-7
1.0E-12                  102                      4.4742598348297963E-7
1.0E-12                  103                      4.473102919431554E-7
1.0E-12                  104                      4.4708797734428145E-7
1.0E-12                  105                      4.467455915243994E-7
1.0E-12                  106                      4.462852920628507E-7
1.0E-12                  107                      4.4570512961673395E-7
1.0E-12                  108                      4.450097553336355E-7
1.0E-12                  109                      4.4420141675295895E-7
1.0E-12                  110                      4.4328636135738806E-7
1.0E-12                  111                      4.422736987059085E-7
1.0E-12                  112                      4.4116740806828276E-7
1.0E-12                  113                      4.399797206914502E-7
1.0E-12                  114                      4.3871883525580047E-7
1.0E-12                  115                      4.3739137640862557E-7
1.0E-12                  116                      4.35994226017108E-7
1.0E-12                  117                      4.345321599038036E-7
1.0E-12                  118                      4.3300854517087577E-7
1.0E-12                  119                      4.314202009379197E-7
1.0E-12                  120                      4.2977297174227805E-7
1.0E-12                  121                      4.2807765640319867E-7
1.0E-12                  122                      4.2632682283419616E-7
1.0E-12                  123                      4.245249359064042E-7
1.0E-12                  124                      4.2269364125329277E-7
1.0E-12                  125                      4.208202434583137E-7
1.0E-12                  126                      4.1890567407885645E-7
1.0E-12                  127                      4.169823981774336E-7
1.0E-12                  128                      4.1503323453505696E-7
1.0E-12                  129                      4.1305818315172694E-7
1.0E-12                  130                      4.110820556607457E-7
1.0E-12                  131                      4.090968088044521E-7
1.0E-12                  132                      4.070997460226977E-7
1.0E-12                  133                      4.051032947379376E-7
1.0E-12                  134                      4.031077808070549E-7
1.0E-12                  135                      4.0110946764427946E-7
1.0E-12                  136                      3.9911335678569186E-7
1.0E-12                  137                      3.971223485765779E-7
1.0E-12                  138                      3.951334464298508E-7
1.0E-12                  139                      3.931494939518803E-7
1.0E-12                  140                      3.9117501678623076E-7
1.0E-12                  141                      3.8920678322184625E-7
1.0E-12                  142                      3.872447932587263E-7
1.0E-12                  143                      3.8528904689687095E-7
1.0E-12                  144                      3.833395441362802E-7
1.0E-12                  145                      3.813965979004224E-7
1.0E-12                  146                      3.794653831227249E-7
1.0E-12                  147                      3.7754196916527564E-7
1.0E-12                  148                      3.7562635602807443E-7
1.0E-12                  149                      3.7371854371112137E-7
1.0E-12                  150                      3.7181853221441646E-7
1.0E-12                  151                      3.6992632153795954E-7
1.0E-12                  152                      3.6805061804178237E-7
1.0E-12                  153                      3.661886985231085E-7
1.0E-12                  154                      3.643379177787568E-7
1.0E-12                  155                      3.6249827580872775E-7
1.0E-12                  156                      3.6066977261302086E-7
1.0E-12                  157                      3.5885240819163645E-7
1.0E-12                  158                      3.5705110024769536E-7
1.0E-12                  159                      3.5527037611608334E-7
1.0E-12                  160                      3.5350431413020237E-7
1.0E-12                  161                      3.5175291429005245E-7
1.0E-12                  162                      3.5001617659563347E-7
1.0E-12                  163                      3.482941010469454E-7
1.0E-12                  164                      3.4658717623991034E-7
1.0E-12                  165                      3.449007821315721E-7
1.0E-12                  166                      3.432307444666719E-7
1.0E-12                  167                      3.4157706324521006E-7
1.0E-12                  168                      3.3993973846718633E-7
1.0E-12                  169                      3.383187701326009E-7
1.0E-12                  170                      3.367141582414533E-7
1.0E-12                  171                      3.3512507423958616E-7
1.0E-12                  172                      3.3355182347160234E-7
1.0E-12                  173                      3.319946238534627E-7
1.0E-12                  174                      3.304534753851674E-7
1.0E-12                  175                      3.289283780667162E-7
1.0E-12                  176                      3.2741933189810963E-7
1.0E-12                  177                      3.2592493803437854E-7
1.0E-12                  178                      3.244441486244514E-7
1.0E-12                  179                      3.229784732081404E-7
1.0E-12                  180                      3.2152791178544565E-7
1.0E-12                  181                      3.2009246435636687E-7
1.0E-12                  182                      3.1867213092090436E-7
1.0E-12                  183                      3.172664001608447E-7
1.0E-12                  184                      3.1587116284286503E-7
1.0E-12                  185                      3.144896815505531E-7
1.0E-12                  186                      3.13121956283909E-7
1.0E-12                  187                      3.1176798704293265E-7
1.0E-12                  188                      3.1042777382762396E-7
1.0E-12                  189                      3.091013166379831E-7
1.0E-12                  190                      3.0778861547400994E-7
1.0E-12                  191                      3.064896703357046E-7
1.0E-12                  192                      3.05204481223067E-7
1.0E-12                  193                      3.03933048136097E-7
1.0E-12                  194                      3.02675371074795E-7
1.0E-12                  195                      3.0143145003916054E-7
1.0E-12                  196                      3.001981569206147E-7
1.0E-12                  197                      2.989743196253462E-7
1.0E-12                  198                      2.977632197432362E-7
1.0E-12                  199                      2.9656485727428446E-7
1.0E-12                  200                      2.9537923221849115E-7
1.0E-12                  201                      2.9420634457585615E-7
1.0E-12                  202                      2.9304619434637925E-7
1.0E-12                  203                      2.91898781530061E-7
1.0E-12                  204                      2.907641061269008E-7
1.0E-12                  205                      2.896421681368993E-7
1.0E-12                  206                      2.885329675600557E-7
1.0E-12                  207                      2.874365043963705E-7
1.0E-12                  208                      2.8635277864584366E-7
1.0E-12                  209                      2.8527325541802734E-7
1.0E-12                  210                      2.8420318375039715E-7
1.0E-12                  211                      2.8314430306921797E-7
1.0E-12                  212                      2.820966133744896E-7
1.0E-12                  213                      2.8106011466621205E-7
1.0E-12                  214                      2.8003480694438553E-7
1.0E-12                  215                      2.790206902090098E-7
1.0E-12                  216                      2.78017764460085E-7
1.0E-12                  217                      2.7702602969761113E-7
1.0E-12                  218                      2.7604548592158807E-7
1.0E-12                  219                      2.7507613313201596E-7
1.0E-12                  220                      2.7411797132889476E-7
1.0E-12                  221                      2.7316887962962867E-7
1.0E-12                  222                      2.7221955647282217E-7
1.0E-12                  223                      2.7127948822447403E-7
1.0E-12                  224                      2.703486748845843E-7
1.0E-12                  225                      2.6942711645315285E-7
1.0E-12                  226                      2.685148129301798E-7
1.0E-12                  227                      2.676117643156655E-7
1.0E-12                  228                      2.667179706096093E-7
1.0E-12                  229                      2.658334318120115E-7
1.0E-12                  230                      2.6495814792287227E-7
1.0E-12                  231                      2.640921189421913E-7
1.0E-12                  232                      2.632353448699688E-7
1.0E-12                  233                      2.623878257062047E-7
1.0E-12                  234                      2.615392649660394E-7
1.0E-12                  235                      2.606882606518473E-7
1.0E-12                  236                      2.5984351733569486E-7
1.0E-12                  237                      2.590050350175824E-7
1.0E-12                  238                      2.5817281369750953E-7
1.0E-12                  239                      2.573468533754764E-7
1.0E-12                  240                      2.5652715405148317E-7
1.0E-12                  241                      2.557137157255297E-7
1.0E-12                  242                      2.5490653839761604E-7
1.0E-12                  243                      2.5410562206774203E-7
1.0E-12                  244                      2.5331096673590767E-7
1.0E-12                  245                      2.525225724021133E-7
1.0E-12                  246                      2.5174043906635863E-7
1.0E-12                  247                      2.5096456672864385E-7
1.0E-12                  248                      2.5019495538896867E-7
1.0E-12                  249                      2.494316050473334E-7
1.0E-12                  250                      2.4867451570373777E-7
1.0E-12                  251                      2.47923687358182E-7
1.0E-12                  252                      2.4717912001066595E-7
1.0E-12                  253                      2.464408136611897E-7
1.0E-12                  254                      2.457087683097532E-7
1.0E-12                  255                      2.4498298395635645E-7
1.0E-12                  256                      2.4426346060099957E-7
1.0E-12                  257                      2.4355019824368234E-7
1.0E-12                  258                      2.4284319688440486E-7
1.0E-12                  259                      2.4213866743854946E-7
1.0E-12                  260                      2.4142653113388777E-7
1.0E-12                  261                      2.4071933554031196E-7
1.0E-12                  262                      2.4001708065782225E-7
1.0E-12                  263                      2.393197664864184E-7
1.0E-12                  264                      2.3862739302610056E-7
1.0E-12                  265                      2.3793996027686867E-7
1.0E-12                  266                      2.3725746823872252E-7
1.0E-12                  267                      2.3657991691166252E-7
1.0E-12                  268                      2.3590730629568845E-7
1.0E-12                  269                      2.352396363908003E-7
1.0E-12                  270                      2.345769071969981E-7
1.0E-12                  271                      2.3391911871428186E-7
1.0E-12                  272                      2.3326627094265168E-7
1.0E-12                  273                      2.3261836388210733E-7
1.0E-12                  274                      2.319753975326489E-7
1.0E-12                  275                      2.3133737189427642E-7
1.0E-12                  276                      2.3070428696698994E-7
1.0E-12                  277                      2.300761427507895E-7
1.0E-12                  278                      2.294529392456748E-7
1.0E-12                  279                      2.2883467645164616E-7
1.0E-12                  280                      2.2822135436870352E-7
1.0E-12                  281                      2.276129729968468E-7
1.0E-12                  282                      2.27009532336076E-7
1.0E-12                  283                      2.264110323863912E-7
1.0E-12                  284                      2.258174731477923E-7
1.0E-12                  285                      2.2521280817074902E-7
1.0E-12                  286                      2.246105590604674E-7
1.0E-12                  287                      2.2401193132349818E-7
1.0E-12                  288                      2.2341692495984163E-7
1.0E-12                  289                      2.2282553996949738E-7
1.0E-12                  290                      2.2223777635246562E-7
1.0E-12                  291                      2.2165363410874625E-7
1.0E-12                  292                      2.2107311323833932E-7
1.0E-12                  293                      2.2049621374124496E-7
1.0E-12                  294                      2.1992293561746294E-7
1.0E-12                  295                      2.1935327886699338E-7
1.0E-12                  296                      2.187872434898363E-7
1.0E-12                  297                      2.1822482948599166E-7
1.0E-12                  298                      2.1766603685545948E-7
1.0E-12                  299                      2.171108655982397E-7
1.0E-12                  300                      2.1655931571433243E-7
1.0E-12                  301                      2.1601138720373754E-7
1.0E-12                  302                      2.1546708006645517E-7
1.0E-12                  303                      2.1492639430248526E-7
1.0E-12                  304                      2.1438932991182772E-7
1.0E-12                  305                      2.1385588689448266E-7
1.0E-12                  306                      2.1332606525045002E-7
1.0E-12                  307                      2.127998649797299E-7
1.0E-12                  308                      2.1227728608232217E-7
1.0E-12                  309                      2.11758328558227E-7
1.0E-12                  310                      2.1123626547954316E-7
1.0E-12                  311                      2.1071320553289698E-7
1.0E-12                  312                      2.101929435859857E-7
1.0E-12                  313                      2.0967547963880921E-7
1.0E-12                  314                      2.0916081369136742E-7
1.0E-12                  315                      2.0864894574366045E-7
1.0E-12                  316                      2.0813987579568833E-7
1.0E-12                  317                      2.0763360384745107E-7
1.0E-12                  318                      2.0713012989894846E-7
1.0E-12                  319                      2.0662945395018072E-7
1.0E-12                  320                      2.0613157600114766E-7
1.0E-12                  321                      2.0563649605184967E-7
1.0E-12                  322                      2.0514421410228612E-7
1.0E-12                  323                      2.0465473015245757E-7
1.0E-12                  324                      2.0416804420236372E-7
1.0E-12                  325                      2.036841562520048E-7
1.0E-12                  326                      2.0320306630138051E-7
1.0E-12                  327                      2.0272477435049118E-7
1.0E-12                  328                      2.0224928039933653E-7
1.0E-12                  329                      2.017765844479167E-7
1.0E-12                  330                      2.0130668649623165E-7
1.0E-12                  331                      2.0083958654428137E-7
1.0E-12                  332                      2.00375284592066E-7
1.0E-12                  333                      1.999137806395853E-7
1.0E-12                  334                      1.9945507468683936E-7
1.0E-12                  335                      1.9899686949527752E-7
1.0E-12                  336                      1.985364994398711E-7
1.0E-12                  337                      1.9807838886265855E-7
1.0E-12                  338                      1.9762253776364E-7
1.0E-12                  339                      1.9716894614281534E-7
1.0E-12                  340                      1.967176140001846E-7
1.0E-12                  341                      1.9626854133574798E-7
1.0E-12                  342                      1.958217281495052E-7
1.0E-12                  343                      1.953771744414563E-7
1.0E-12                  344                      1.9493488021160136E-7
1.0E-12                  345                      1.9449484545994052E-7
1.0E-12                  346                      1.9405707018647342E-7
1.0E-12                  347                      1.936215543912003E-7
1.0E-12                  348                      1.9318829807412117E-7
1.0E-12                  349                      1.9275730123523605E-7
1.0E-12                  350                      1.923285638745448E-7
1.0E-12                  351                      1.919020859920474E-7
1.0E-12                  352                      1.9147786758774408E-7
1.0E-12                  353                      1.910559086616346E-7
1.0E-12                  354                      1.9063620921371918E-7
1.0E-12                  355                      1.9021876924399758E-7
1.0E-12                  356                      1.8980358875246996E-7
1.0E-12                  357                      1.8939066773913634E-7
1.0E-12                  358                      1.8898000620399662E-7
1.0E-12                  359                      1.8857160414705082E-7
1.0E-12                  360                      1.8816528291183084E-7
1.0E-12                  361                      1.8775616667949247E-7
1.0E-12                  362                      1.8734891300101035E-7
1.0E-12                  363                      1.869435218763843E-7
1.0E-12                  364                      1.8653999330561444E-7
1.0E-12                  365                      1.8613832728870077E-7
1.0E-12                  366                      1.8573852382564326E-7
1.0E-12                  367                      1.8534058291644193E-7
1.0E-12                  368                      1.8494450456109672E-7
1.0E-12                  369                      1.8455028875960772E-7
1.0E-12                  370                      1.841579355119748E-7
1.0E-12                  371                      1.8376744481819815E-7
1.0E-12                  372                      1.8337881667827758E-7
1.0E-12                  373                      1.8299205109221328E-7
1.0E-12                  374                      1.82607148060005E-7
1.0E-12                  375                      1.822241075816531E-7
1.0E-12                  376                      1.8184292965715717E-7
1.0E-12                  377                      1.8146361428651746E-7
1.0E-12                  378                      1.8108616146973394E-7
1.0E-12                  379                      1.8071057120680652E-7
1.0E-12                  380                      1.803368434977353E-7
1.0E-12                  381                      1.7996497834252033E-7
1.0E-12                  382                      1.7959497574116148E-7
1.0E-12                  383                      1.7922683569365874E-7
1.0E-12                  384                      1.7886055820001218E-7
1.0E-12                  385                      1.7849614326022178E-7
1.0E-12                  386                      1.7813052753100173E-7
1.0E-12                  387                      1.7776541087679044E-7
1.0E-12                  388                      1.7740183799879373E-7
1.0E-12                  389                      1.7703980889701164E-7
1.0E-12                  390                      1.7667932357144384E-7
1.0E-12                  391                      1.763203820220906E-7
1.0E-12                  392                      1.7596298424895184E-7
1.0E-12                  393                      1.756071302520276E-7
1.0E-12                  394                      1.7525282003131785E-7
1.0E-12                  395                      1.7490005358682246E-7
1.0E-12                  396                      1.7454883091854175E-7
1.0E-12                  397                      1.7419915202647534E-7
1.0E-12                  398                      1.7385101691062354E-7
1.0E-12                  399                      1.7350442557098615E-7
1.0E-12                  400                      1.7315937800756328E-7
1.0E-12                  401                      1.7281587422035493E-7
1.0E-12                  402                      1.7247391420936091E-7
1.0E-12                  403                      1.721334979745815E-7
1.0E-12                  404                      1.7179462551601668E-7
1.0E-12                  405                      1.7145729683366612E-7
1.0E-12                  406                      1.7112151192753018E-7
1.0E-12                  407                      1.7078727079760874E-7
1.0E-12                  408                      1.7045457344390174E-7
1.0E-12                  409                      1.7012341986640915E-7
1.0E-12                  410                      1.6979381006513113E-7
1.0E-12                  411                      1.6946350864352937E-7
1.0E-12                  412                      1.691316319512613E-7
1.0E-12                  413                      1.688009050226709E-7