% Model:              NP_reactive_flow_TCE_in_Low_Permeable.mph
% Version:            COMSOL 5.2.0.166
% Date:               Jun 7 2020, 21:56
% Table:              tce_outflow_concentration4 - tce_outflow_concentraion (tce_outflow_concentraion)
% lowPM_per              t (s)                    tce_outflow_concentraion (mol/(m*s))
1.0E-14                  0                        1.1383345011908277E-14
1.0E-14                  1                        2.21216923808608E-11
1.0E-14                  2                        -2.3215151431856274E-10
1.0E-14                  3                        1.4844408676353845E-9
1.0E-14                  4                        1.0390597956051874E-8
1.0E-14                  5                        2.6815041099558475E-8
1.0E-14                  6                        4.705441923325503E-8
1.0E-14                  7                        6.779070761157285E-8
1.0E-14                  8                        8.698718256736991E-8
1.0E-14                  9                        1.0401975543189638E-7
1.0E-14                  10                       1.1906959301496837E-7
1.0E-14                  11                       1.3235442662450895E-7
1.0E-14                  12                       1.441026086388709E-7
1.0E-14                  13                       1.5458102957893908E-7
1.0E-14                  14                       1.640441239788791E-7
1.0E-14                  15                       1.7269890108154663E-7
1.0E-14                  16                       1.8070364987918544E-7
1.0E-14                  17                       1.881905135717992E-7
1.0E-14                  18                       1.952621521354839E-7
1.0E-14                  19                       2.0200048146942408E-7
1.0E-14                  20                       2.0846284401022977E-7
1.0E-14                  21                       2.1468574192333675E-7
1.0E-14                  22                       2.2069317500650953E-7
1.0E-14                  23                       2.265041208681301E-7
1.0E-14                  24                       2.3213630839557324E-7
1.0E-14                  25                       2.3762856867318612E-7
1.0E-14                  26                       2.429808016802947E-7
1.0E-14                  27                       2.481801032206082E-7
1.0E-14                  28                       2.5323321198399135E-7
1.0E-14                  29                       2.581424978479842E-7
1.0E-14                  30                       2.6293723294554247E-7
1.0E-14                  31                       2.676253100251557E-7
1.0E-14                  32                       2.7223775333826235E-7
1.0E-14                  33                       2.7680038096595615E-7
1.0E-14                  34                       2.813242087514485E-7
1.0E-14                  35                       2.8583789837348787E-7
1.0E-14                  36                       2.9034386614548007E-7
1.0E-14                  37                       2.948514393928086E-7
1.0E-14                  38                       2.993591714111087E-7
1.0E-14                  39                       3.038612816051637E-7
1.0E-14                  40                       3.083474065657516E-7
1.0E-14                  41                       3.1279841764065885E-7
1.0E-14                  42                       3.1720541198672615E-7
1.0E-14                  43                       3.2153821873103115E-7
1.0E-14                  44                       3.257824994718897E-7
1.0E-14                  45                       3.299196114002418E-7
1.0E-14                  46                       3.3391294555481494E-7
1.0E-14                  47                       3.3775937664298455E-7
1.0E-14                  48                       3.414324913000562E-7
1.0E-14                  49                       3.449177275340446E-7
1.0E-14                  50                       3.482101487674154E-7
1.0E-14                  51                       3.512993534081671E-7
1.0E-14                  52                       3.5418968584002565E-7
1.0E-14                  53                       3.568819498800032E-7
1.0E-14                  54                       3.5939201861039905E-7
1.0E-14                  55                       3.6172586143891534E-7
1.0E-14                  56                       3.6390176374232375E-7
1.0E-14                  57                       3.6592790290835443E-7
1.0E-14                  58                       3.678282708010016E-7
1.0E-14                  59                       3.696302027651197E-7
1.0E-14                  60                       3.7135478654102466E-7
1.0E-14                  61                       3.730225611064004E-7
1.0E-14                  62                       3.7465832561857075E-7
1.0E-14                  63                       3.762881620298205E-7
1.0E-14                  64                       3.779215203709935E-7
1.0E-14                  65                       3.7955163595672883E-7
1.0E-14                  66                       3.8116976406803565E-7
1.0E-14                  67                       3.8277377865047585E-7
1.0E-14                  68                       3.8429286032120157E-7
1.0E-14                  69                       3.858384338490258E-7
1.0E-14                  70                       3.8744213728310155E-7
1.0E-14                  71                       3.8891215238887757E-7
1.0E-14                  72                       3.9058979956033E-7
1.0E-14                  73                       3.9227381997155054E-7
1.0E-14                  74                       3.939440637960569E-7
1.0E-14                  75                       3.955136054542797E-7
1.0E-14                  76                       3.970730261505075E-7
1.0E-14                  77                       3.986308951154612E-7
1.0E-14                  78                       4.001756851956674E-7
1.0E-14                  79                       4.0169857131601397E-7
1.0E-14                  80                       4.0320565668732847E-7
1.0E-14                  81                       4.0473963563581317E-7
1.0E-14                  82                       4.0623611699966406E-7
1.0E-14                  83                       4.076822048755242E-7
1.0E-14                  84                       4.090989311473828E-7
1.0E-14                  85                       4.104940787335721E-7
1.0E-14                  86                       4.1186340442774084E-7
1.0E-14                  87                       4.132001877795263E-7
1.0E-14                  88                       4.145015035173851E-7
1.0E-14                  89                       4.1576717117827664E-7
1.0E-14                  90                       4.1699356792015296E-7
1.0E-14                  91                       4.181719766410727E-7
1.0E-14                  92                       4.192914788561054E-7
1.0E-14                  93                       4.203407087576248E-7
1.0E-14                  94                       4.2131050981328276E-7
1.0E-14                  95                       4.221926274587336E-7
1.0E-14                  96                       4.2298248008771353E-7
1.0E-14                  97                       4.2367680801205387E-7
1.0E-14                  98                       4.242524120738985E-7
1.0E-14                  99                       4.247028971097756E-7
1.0E-14                  100                      4.2502625106745807E-7
1.0E-14                  101                      4.2522194841591156E-7
1.0E-14                  102                      4.2529143087194124E-7
1.0E-14                  103                      4.252377697903334E-7
1.0E-14                  104                      4.2506522127781686E-7
1.0E-14                  105                      4.2477795949947286E-7
1.0E-14                  106                      4.2438083835572897E-7
1.0E-14                  107                      4.238781692671456E-7
1.0E-14                  108                      4.232730268707052E-7
1.0E-14                  109                      4.2256886631065497E-7
1.0E-14                  110                      4.2176646305081084E-7
1.0E-14                  111                      4.208659598401488E-7
1.0E-14                  112                      4.198685159604384E-7
1.0E-14                  113                      4.1877350074022927E-7
1.0E-14                  114                      4.175915798820584E-7
1.0E-14                  115                      4.1632144428367134E-7
1.0E-14                  116                      4.1496758030326514E-7
1.0E-14                  117                      4.1354687985330004E-7
1.0E-14                  118                      4.120504400931698E-7
1.0E-14                  119                      4.105017960650368E-7
1.0E-14                  120                      4.088998340789058E-7
1.0E-14                  121                      4.072467660399928E-7
1.0E-14                  122                      4.055646898879962E-7
1.0E-14                  123                      4.038422899161687E-7
1.0E-14                  124                      4.0209565898186075E-7
1.0E-14                  125                      4.0032535716230944E-7
1.0E-14                  126                      3.985314490662936E-7
1.0E-14                  127                      3.9672903190968423E-7
1.0E-14                  128                      3.949105768590768E-7
1.0E-14                  129                      3.9307608391447117E-7
1.0E-14                  130                      3.912255530758678E-7
1.0E-14                  131                      3.893611478463703E-7
1.0E-14                  132                      3.874916015770489E-7
1.0E-14                  133                      3.8561007238177286E-7
1.0E-14                  134                      3.8371656026054205E-7
1.0E-14                  135                      3.818110652133566E-7
1.0E-14                  136                      3.798968751803011E-7
1.0E-14                  137                      3.7799117010506567E-7
1.0E-14                  138                      3.7608093697576943E-7
1.0E-14                  139                      3.7416617579241247E-7
1.0E-14                  140                      3.722468865549947E-7
1.0E-14                  141                      3.703260530484142E-7
1.0E-14                  142                      3.6842460393005396E-7
1.0E-14                  143                      3.6652715872572597E-7
1.0E-14                  144                      3.646337174354302E-7
1.0E-14                  145                      3.627442800591666E-7
1.0E-14                  146                      3.6086057460366464E-7
1.0E-14                  147                      3.58999904181696E-7
1.0E-14                  148                      3.571498950921332E-7
1.0E-14                  149                      3.553105473349762E-7
1.0E-14                  150                      3.5348186091022514E-7
1.0E-14                  151                      3.516643769550986E-7
1.0E-14                  152                      3.4986679695360146E-7
1.0E-14                  153                      3.4808305072661634E-7
1.0E-14                  154                      3.4631313827414347E-7
1.0E-14                  155                      3.4455705959618296E-7
1.0E-14                  156                      3.428148685290568E-7
1.0E-14                  157                      3.410884413591546E-7
1.0E-14                  158                      3.393764984907773E-7
1.0E-14                  159                      3.3767903992392453E-7
1.0E-14                  160                      3.359960656585967E-7
1.0E-14                  161                      3.343275756947935E-7
1.0E-14                  162                      3.326729878293404E-7
1.0E-14                  163                      3.3103269019826753E-7
1.0E-14                  164                      3.2940668355316627E-7
1.0E-14                  165                      3.277949678940366E-7
1.0E-14                  166                      3.261975432208787E-7
1.0E-14                  167                      3.24613083849445E-7
1.0E-14                  168                      3.230424161005832E-7
1.0E-14                  169                      3.214855809384103E-7
1.0E-14                  170                      3.199425783629262E-7
1.0E-14                  171                      3.18413408374131E-7
1.0E-14                  172                      3.1689807097202454E-7
1.0E-14                  173                      3.1539656615660677E-7
1.0E-14                  174                      3.1390889392787816E-7
1.0E-14                  175                      3.124350542858379E-7
1.0E-14                  176                      3.1097504723048675E-7
1.0E-14                  177                      3.095280008076686E-7
1.0E-14                  178                      3.080945172653184E-7
1.0E-14                  179                      3.066746887583893E-7
1.0E-14                  180                      3.0526851528688153E-7
1.0E-14                  181                      3.03875996850795E-7
1.0E-14                  182                      3.024971334501297E-7
1.0E-14                  183                      3.0113192508488556E-7
1.0E-14                  184                      2.997803717550627E-7
1.0E-14                  185                      2.9844247346066113E-7
1.0E-14                  186                      2.9711823020168076E-7
1.0E-14                  187                      2.958077971546783E-7
1.0E-14                  188                      2.945110829687909E-7
1.0E-14                  189                      2.932280582439283E-7
1.0E-14                  190                      2.9195872298009076E-7
1.0E-14                  191                      2.9070307717727835E-7
1.0E-14                  192                      2.8946112083549084E-7
1.0E-14                  193                      2.8823285395472816E-7
1.0E-14                  194                      2.870182765349908E-7
1.0E-14                  195                      2.858173885762784E-7
1.0E-14                  196                      2.84630190078591E-7
1.0E-14                  197                      2.8345448745493746E-7
1.0E-14                  198                      2.8229130815534383E-7
1.0E-14                  199                      2.811412844499098E-7
1.0E-14                  200                      2.8000441633863503E-7
1.0E-14                  201                      2.788807038215196E-7
1.0E-14                  202                      2.777701468985634E-7
1.0E-14                  203                      2.7667274556976657E-7
1.0E-14                  204                      2.7558849983512917E-7
1.0E-14                  205                      2.7451740969465106E-7
1.0E-14                  206                      2.734594751483323E-7
1.0E-14                  207                      2.724037998425801E-7
1.0E-14                  208                      2.713539179364049E-7
1.0E-14                  209                      2.7031425841317153E-7
1.0E-14                  210                      2.692848212728795E-7
1.0E-14                  211                      2.68265606515529E-7
1.0E-14                  212                      2.672566141411203E-7
1.0E-14                  213                      2.6625784414965306E-7
1.0E-14                  214                      2.652692965411274E-7
1.0E-14                  215                      2.6429097131554346E-7
1.0E-14                  216                      2.63322868472901E-7
1.0E-14                  217                      2.623649880132001E-7
1.0E-14                  218                      2.614173299364409E-7
1.0E-14                  219                      2.604798942426232E-7
1.0E-14                  220                      2.5955268093174693E-7
1.0E-14                  221                      2.5863569000381247E-7
1.0E-14                  222                      2.577289214588195E-7
1.0E-14                  223                      2.5683237529676815E-7
1.0E-14                  224                      2.559460515176584E-7
1.0E-14                  225                      2.550699501214902E-7
1.0E-14                  226                      2.542040711082635E-7
1.0E-14                  227                      2.5333583121896356E-7
1.0E-14                  228                      2.5246596499449234E-7
1.0E-14                  229                      2.516041244535222E-7
1.0E-14                  230                      2.507503095960529E-7
1.0E-14                  231                      2.499045204220849E-7
1.0E-14                  232                      2.4906675693161795E-7
1.0E-14                  233                      2.48237019124652E-7
1.0E-14                  234                      2.4741530700118706E-7
1.0E-14                  235                      2.466016205612232E-7
1.0E-14                  236                      2.4579595980476033E-7
1.0E-14                  237                      2.449983247317987E-7
1.0E-14                  238                      2.44208715342338E-7
1.0E-14                  239                      2.434271316363782E-7
1.0E-14                  240                      2.4265357361391964E-7
1.0E-14                  241                      2.418880412749621E-7
1.0E-14                  242                      2.4113053461950557E-7
1.0E-14                  243                      2.403810536475501E-7
1.0E-14                  244                      2.3963959835909567E-7
1.0E-14                  245                      2.389061687541423E-7
1.0E-14                  246                      2.3818076483269006E-7
1.0E-14                  247                      2.3745316102719842E-7
1.0E-14                  248                      2.3671758766097366E-7
1.0E-14                  249                      2.3598765307502075E-7
1.0E-14                  250                      2.3526335726933978E-7
1.0E-14                  251                      2.3454470024393054E-7
1.0E-14                  252                      2.3383168199879317E-7
1.0E-14                  253                      2.3312430253392748E-7
1.0E-14                  254                      2.3242256184933369E-7
1.0E-14                  255                      2.317264599450118E-7
1.0E-14                  256                      2.310359968209616E-7
1.0E-14                  257                      2.3035117247718346E-7
1.0E-14                  258                      2.2967198691367689E-7
1.0E-14                  259                      2.289984401304422E-7
1.0E-14                  260                      2.2833053212747942E-7
1.0E-14                  261                      2.276682629047883E-7
1.0E-14                  262                      2.2701163246236917E-7
1.0E-14                  263                      2.263606408002218E-7
1.0E-14                  264                      2.2571528791834618E-7
1.0E-14                  265                      2.2507557381674248E-7
1.0E-14                  266                      2.2444149849541056E-7
1.0E-14                  267                      2.2380861492002836E-7
1.0E-14                  268                      2.2316894017928109E-7
1.0E-14                  269                      2.2253334851302341E-7
1.0E-14                  270                      2.219018399212555E-7
1.0E-14                  271                      2.212744144039772E-7
1.0E-14                  272                      2.206510719611886E-7
1.0E-14                  273                      2.200318125928898E-7
1.0E-14                  274                      2.1941663629908057E-7
1.0E-14                  275                      2.1880554307976109E-7
1.0E-14                  276                      2.181985329349313E-7
1.0E-14                  277                      2.1759560586459118E-7
1.0E-14                  278                      2.169967618687407E-7
1.0E-14                  279                      2.1640200094738002E-7
1.0E-14                  280                      2.158113231005089E-7
1.0E-14                  281                      2.1522472832812764E-7
1.0E-14                  282                      2.1464221663023594E-7
1.0E-14                  283                      2.1406378800683397E-7
1.0E-14                  284                      2.1348944245792163E-7
1.0E-14                  285                      2.1291917998349902E-7
1.0E-14                  286                      2.1235300058356607E-7
1.0E-14                  287                      2.117891163323705E-7
1.0E-14                  288                      2.1121791112992186E-7
1.0E-14                  289                      2.1064955744376438E-7
1.0E-14                  290                      2.1008405527389803E-7
1.0E-14                  291                      2.095214046203229E-7
1.0E-14                  292                      2.089616054830388E-7
1.0E-14                  293                      2.0840465786204602E-7
1.0E-14                  294                      2.0785056175734425E-7
1.0E-14                  295                      2.0729931716893367E-7
1.0E-14                  296                      2.0675092409681424E-7
1.0E-14                  297                      2.06205382540986E-7
1.0E-14                  298                      2.0566269250144877E-7
1.0E-14                  299                      2.0512285397820293E-7
1.0E-14                  300                      2.04585866971248E-7
1.0E-14                  301                      2.0405173148058432E-7
1.0E-14                  302                      2.035204475062117E-7
1.0E-14                  303                      2.0299201504813042E-7
1.0E-14                  304                      2.0246643410634014E-7
1.0E-14                  305                      2.0194370468084115E-7
1.0E-14                  306                      2.0142382677163314E-7
1.0E-14                  307                      2.009068003787164E-7
1.0E-14                  308                      2.0039262550209075E-7
1.0E-14                  309                      1.9988130214175628E-7
1.0E-14                  310                      1.9937283029771298E-7
1.0E-14                  311                      1.9886720996996074E-7
1.0E-14                  312                      1.9836444115849972E-7
1.0E-14                  313                      1.9786452386332986E-7
1.0E-14                  314                      1.9736745808445108E-7
1.0E-14                  315                      1.9687324382186352E-7
1.0E-14                  316                      1.963818810755671E-7
1.0E-14                  317                      1.9589336984556176E-7
1.0E-14                  318                      1.9540771013184765E-7
1.0E-14                  319                      1.9492490193442466E-7
1.0E-14                  320                      1.944449452532928E-7
1.0E-14                  321                      1.9396784008845217E-7
1.0E-14                  322                      1.9349358643990262E-7
1.0E-14                  323                      1.9302218430764417E-7
1.0E-14                  324                      1.9255363369167708E-7
1.0E-14                  325                      1.9208793459200085E-7
1.0E-14                  326                      1.9162508700861593E-7
1.0E-14                  327                      1.911650909415221E-7
1.0E-14                  328                      1.9069954042331579E-7
1.0E-14                  329                      1.9023514029639474E-7
1.0E-14                  330                      1.8977312172672119E-7
1.0E-14                  331                      1.8931348471429495E-7
1.0E-14                  332                      1.8885622925911618E-7
1.0E-14                  333                      1.8840135536118468E-7
1.0E-14                  334                      1.8794886302050073E-7
1.0E-14                  335                      1.8749875223706414E-7
1.0E-14                  336                      1.8705102301087495E-7
1.0E-14                  337                      1.8660567534193323E-7
1.0E-14                  338                      1.861627092302389E-7
1.0E-14                  339                      1.857221246757919E-7
1.0E-14                  340                      1.8528392167859225E-7
1.0E-14                  341                      1.8484810023864008E-7
1.0E-14                  342                      1.8441466035593533E-7
1.0E-14                  343                      1.8398360203047802E-7
1.0E-14                  344                      1.8355492526226805E-7
1.0E-14                  345                      1.8312863005130553E-7
1.0E-14                  346                      1.8270471639759033E-7
1.0E-14                  347                      1.8228318430112262E-7
1.0E-14                  348                      1.8186403376190223E-7
1.0E-14                  349                      1.8144726477992936E-7
1.0E-14                  350                      1.8103287735520383E-7
1.0E-14                  351                      1.8062087148772572E-7
1.0E-14                  352                      1.8021124717749498E-7
1.0E-14                  353                      1.7980400442451169E-7
1.0E-14                  354                      1.793991432287757E-7
1.0E-14                  355                      1.7899666359028722E-7
1.0E-14                  356                      1.7859656550904613E-7
1.0E-14                  357                      1.7819884898505238E-7
1.0E-14                  358                      1.7780351401830606E-7
1.0E-14                  359                      1.7741056060880717E-7
1.0E-14                  360                      1.770199887565557E-7
1.0E-14                  361                      1.766317984615516E-7
1.0E-14                  362                      1.7624598972379488E-7
1.0E-14                  363                      1.7586256254328557E-7
1.0E-14                  364                      1.754815169200238E-7
1.0E-14                  365                      1.7510285285400924E-7
1.0E-14                  366                      1.7472657034524221E-7
1.0E-14                  367                      1.7435266939372245E-7
1.0E-14                  368                      1.7397381198018827E-7
1.0E-14                  369                      1.7359187678050238E-7
1.0E-14                  370                      1.73211720416711E-7
1.0E-14                  371                      1.728333428888142E-7
1.0E-14                  372                      1.7245674419681193E-7
1.0E-14                  373                      1.720819243407043E-7
1.0E-14                  374                      1.717088833204912E-7
1.0E-14                  375                      1.7133762113617267E-7
1.0E-14                  376                      1.7096813778774865E-7
1.0E-14                  377                      1.706004332752193E-7
1.0E-14                  378                      1.702345075985845E-7
1.0E-14                  379                      1.698703607578442E-7
1.0E-14                  380                      1.6950799275299848E-7
1.0E-14                  381                      1.6914740358404738E-7
1.0E-14                  382                      1.6878859325099084E-7
1.0E-14                  383                      1.6843156175382886E-7
1.0E-14                  384                      1.6807630909256136E-7
1.0E-14                  385                      1.6772283526718859E-7
1.0E-14                  386                      1.6737114027771026E-7
1.0E-14                  387                      1.670212241241266E-7
1.0E-14                  388                      1.6667308680643735E-7
1.0E-14                  389                      1.6632672832464282E-7
1.0E-14                  390                      1.6598214867874276E-7
1.0E-14                  391                      1.6563934786873735E-7
1.0E-14                  392                      1.6529832589462642E-7
1.0E-14                  393                      1.6495908275641018E-7
1.0E-14                  394                      1.6462161845408835E-7
1.0E-14                  395                      1.6428593298766118E-7
1.0E-14                  396                      1.6395202635712857E-7
1.0E-14                  397                      1.636198985624906E-7
1.0E-14                  398                      1.6328954960374704E-7
1.0E-14                  399                      1.6296097948089811E-7
1.0E-14                  400                      1.6263418819394378E-7
1.0E-14                  401                      1.6230917574288403E-7
1.0E-14                  402                      1.619859421277188E-7
1.0E-14                  403                      1.6166448734844816E-7
1.0E-14                  404                      1.6134481140507212E-7
1.0E-14                  405                      1.610269142975906E-7
1.0E-14                  406                      1.6071079602600364E-7
1.0E-14                  407                      1.6039645659031123E-7
1.0E-14                  408                      1.6007952699503733E-7
1.0E-14                  409                      1.5975473935159437E-7
1.0E-14                  410                      1.5943106229095207E-7
1.0E-14                  411                      1.5910849581311028E-7
1.0E-14                  412                      1.5878703991806906E-7
1.0E-14                  413                      1.5846669460582844E-7