% Model:              NP_reactive_flow_TCE_in_Low_Permeable.mph
% Version:            COMSOL 5.2.0.166
% Date:               Jun 7 2020, 21:56
% Table:              tce_outflow_concentration7 - tce_outflow_concentraion (tce_outflow_concentraion)
% lowPM_per              t (s)                    tce_outflow_concentraion (mol/(m*s))
1.0E-17                  0                        1.1385700703342762E-14
1.0E-17                  1                        2.2122752819679205E-11
1.0E-17                  2                        -2.3212831252739853E-10
1.0E-17                  3                        1.4844984898517439E-9
1.0E-17                  4                        1.0389805887096704E-8
1.0E-17                  5                        2.681193939790078E-8
1.0E-17                  6                        4.7047546309769775E-8
1.0E-17                  7                        6.77788735745884E-8
1.0E-17                  8                        8.696956905887953E-8
1.0E-17                  9                        1.0399585528006429E-7
1.0E-17                  10                       1.1903912321220802E-7
1.0E-17                  11                       1.3231722402812856E-7
1.0E-17                  12                       1.440586120843113E-7
1.0E-17                  13                       1.5453022662853063E-7
1.0E-17                  14                       1.639865038475319E-7
1.0E-17                  15                       1.7263443210032194E-7
1.0E-17                  16                       1.8063229798361136E-7
1.0E-17                  17                       1.8811225754915983E-7
1.0E-17                  18                       1.9517697863590265E-7
1.0E-17                  19                       2.01908378635265E-7
1.0E-17                  20                       2.0836379010931585E-7
1.0E-17                  21                       2.1457970255009153E-7
1.0E-17                  22                       2.2058011017916413E-7
1.0E-17                  23                       2.26383992819004E-7
1.0E-17                  24                       2.320090952055896E-7
1.0E-17                  25                       2.374942734804253E-7
1.0E-17                  26                       2.428394262565219E-7
1.0E-17                  27                       2.4803165815051385E-7
1.0E-17                  28                       2.530777008319164E-7
1.0E-17                  29                       2.5797992092537075E-7
1.0E-17                  30                       2.627675821633612E-7
1.0E-17                  31                       2.6744858204135206E-7
1.0E-17                  32                       2.720539424867624E-7
1.0E-17                  33                       2.766094757299957E-7
1.0E-17                  34                       2.8112619092170216E-7
1.0E-17                  35                       2.856327373617455E-7
1.0E-17                  36                       2.9013153144688544E-7
1.0E-17                  37                       2.9463189409881203E-7
1.0E-17                  38                       2.991323645088551E-7
1.0E-17                  39                       3.0362715553594446E-7
1.0E-17                  40                       3.0810588642713513E-7
1.0E-17                  41                       3.125494291991571E-7
1.0E-17                  42                       3.169488824559732E-7
1.0E-17                  43                       3.212740788222074E-7
1.0E-17                  44                       3.2551071337782063E-7
1.0E-17                  45                       3.2964017621338495E-7
1.0E-17                  46                       3.336259388241457E-7
1.0E-17                  47                       3.3746489569439944E-7
1.0E-17                  48                       3.411307234883127E-7
1.0E-17                  49                       3.446089877813251E-7
1.0E-17                  50                       3.4789480193548084E-7
1.0E-17                  51                       3.5097789920242085E-7
1.0E-17                  52                       3.538626687862426E-7
1.0E-17                  53                       3.5654998220520717E-7
1.0E-17                  54                       3.5905581057138167E-7
1.0E-17                  55                       3.613861170899463E-7
1.0E-17                  56                       3.635592241922979E-7
1.0E-17                  57                       3.655831756066449E-7
1.0E-17                  58                       3.6748206979072404E-7
1.0E-17                  59                       3.69283309074733E-7
1.0E-17                  60                       3.7100810773219037E-7
1.0E-17                  61                       3.726772106420859E-7
1.0E-17                  62                       3.743151592016814E-7
1.0E-17                  63                       3.7594782701040393E-7
1.0E-17                  64                       3.7758425162441235E-7
1.0E-17                  65                       3.7921760047584464E-7
1.0E-17                  66                       3.808390618063314E-7
1.0E-17                  67                       3.8244669259302513E-7
1.0E-17                  68                       3.8396671660138176E-7
1.0E-17                  69                       3.8549571614282085E-7
1.0E-17                  70                       3.871365895703934E-7
1.0E-17                  71                       3.886486834601282E-7
1.0E-17                  72                       3.903073275274827E-7
1.0E-17                  73                       3.9198583343059913E-7
1.0E-17                  74                       3.936700732716501E-7
1.0E-17                  75                       3.952446750945819E-7
1.0E-17                  76                       3.9680392633309227E-7
1.0E-17                  77                       3.9836055145439095E-7
1.0E-17                  78                       3.999054654395089E-7
1.0E-17                  79                       4.0143001992192896E-7
1.0E-17                  80                       4.029389734923498E-7
1.0E-17                  81                       4.0447298507219145E-7
1.0E-17                  82                       4.059785530574073E-7
1.0E-17                  83                       4.0743250933879246E-7
1.0E-17                  84                       4.088550423118081E-7
1.0E-17                  85                       4.1025490297004194E-7
1.0E-17                  86                       4.1162897917047204E-7
1.0E-17                  87                       4.129702136208462E-7
1.0E-17                  88                       4.1427522465338413E-7
1.0E-17                  89                       4.155436605764925E-7
1.0E-17                  90                       4.1677270978404067E-7
1.0E-17                  91                       4.179536954565026E-7
1.0E-17                  92                       4.190761435978511E-7
1.0E-17                  93                       4.201286082868093E-7
1.0E-17                  94                       4.21101356326416E-7
1.0E-17                  95                       4.2198657786693283E-7
1.0E-17                  96                       4.2277840843762225E-7
1.0E-17                  97                       4.234762981824338E-7
1.0E-17                  98                       4.24055146611893E-7
1.0E-17                  99                       4.245108044747222E-7
1.0E-17                  100                      4.24838185796301E-7
1.0E-17                  101                      4.25037017849729E-7
1.0E-17                  102                      4.251088002068773E-7
1.0E-17                  103                      4.2505685445197926E-7
1.0E-17                  104                      4.248846144830194E-7
1.0E-17                  105                      4.245967514398232E-7
1.0E-17                  106                      4.241984591799375E-7
1.0E-17                  107                      4.2369457928474785E-7
1.0E-17                  108                      4.2308813296061425E-7
1.0E-17                  109                      4.22382352532402E-7
1.0E-17                  110                      4.2157957163127653E-7
1.0E-17                  111                      4.206792673724967E-7
1.0E-17                  112                      4.196833694504072E-7
1.0E-17                  113                      4.185909756092283E-7
1.0E-17                  114                      4.174097893262524E-7
1.0E-17                  115                      4.1614335087756795E-7
1.0E-17                  116                      4.147900998029121E-7
1.0E-17                  117                      4.1337284096556487E-7
1.0E-17                  118                      4.118812029815327E-7
1.0E-17                  119                      4.1033099954899717E-7
1.0E-17                  120                      4.0873247066774815E-7
1.0E-17                  121                      4.0707854265409474E-7
1.0E-17                  122                      4.0539825047590035E-7
1.0E-17                  123                      4.036787287979736E-7
1.0E-17                  124                      4.0193017112690675E-7
1.0E-17                  125                      4.001614305473922E-7
1.0E-17                  126                      3.983662596899055E-7
1.0E-17                  127                      3.965639879568206E-7
1.0E-17                  128                      3.947462679132887E-7
1.0E-17                  129                      3.9291309487472133E-7
1.0E-17                  130                      3.9106446884111813E-7
1.0E-17                  131                      3.8920038981247946E-7
1.0E-17                  132                      3.8733216105537067E-7
1.0E-17                  133                      3.8545289499860686E-7
1.0E-17                  134                      3.8356212898869933E-7
1.0E-17                  135                      3.8165986302564855E-7
1.0E-17                  136                      3.7974609710945426E-7
1.0E-17                  137                      3.7784065719890197E-7
1.0E-17                  138                      3.759327606968872E-7
1.0E-17                  139                      3.7402071023321516E-7
1.0E-17                  140                      3.721045058078862E-7
1.0E-17                  141                      3.7018414742090005E-7
1.0E-17                  142                      3.682810512515487E-7
1.0E-17                  143                      3.6638512167199827E-7
1.0E-17                  144                      3.64493467910472E-7
1.0E-17                  145                      3.6260608996696936E-7
1.0E-17                  146                      3.60722987841491E-7
1.0E-17                  147                      3.58859796279503E-7
1.0E-17                  148                      3.5701040572578985E-7
1.0E-17                  149                      3.5517184820957194E-7
1.0E-17                  150                      3.5334412373084913E-7
1.0E-17                  151                      3.515272322896217E-7
1.0E-17                  152                      3.497280748767651E-7
1.0E-17                  153                      3.4794457789967664E-7
1.0E-17                  154                      3.461750081115393E-7
1.0E-17                  155                      3.44419365512353E-7
1.0E-17                  156                      3.426776501021176E-7
1.0E-17                  157                      3.409511168791386E-7
1.0E-17                  158                      3.392395165180372E-7
1.0E-17                  159                      3.3754244715396944E-7
1.0E-17                  160                      3.358599087869355E-7
1.0E-17                  161                      3.341919014169356E-7
1.0E-17                  162                      3.3253801371903206E-7
1.0E-17                  163                      3.3089827981415217E-7
1.0E-17                  164                      3.292728636487602E-7
1.0E-17                  165                      3.2766176522285623E-7
1.0E-17                  166                      3.260649845364399E-7
1.0E-17                  167                      3.244816850408044E-7
1.0E-17                  168                      3.229118251236304E-7
1.0E-17                  169                      3.2135581329925904E-7
1.0E-17                  170                      3.198136495676901E-7
1.0E-17                  171                      3.1828533392892397E-7
1.0E-17                  172                      3.1677086638296034E-7
1.0E-17                  173                      3.1527024692979927E-7
1.0E-17                  174                      3.1378347556944066E-7
1.0E-17                  175                      3.123105523018848E-7
1.0E-17                  176                      3.1085147712713135E-7
1.0E-17                  177                      3.094057049879852E-7
1.0E-17                  178                      3.0797315976899844E-7
1.0E-17                  179                      3.0655427087107193E-7
1.0E-17                  180                      3.0514903829420615E-7
1.0E-17                  181                      3.03757462038401E-7
1.0E-17                  182                      3.023795421036565E-7
1.0E-17                  183                      3.010152784899724E-7
1.0E-17                  184                      2.996646711973489E-7
1.0E-17                  185                      2.983277202257863E-7
1.0E-17                  186                      2.9700442557528396E-7
1.0E-17                  187                      2.9569479277952743E-7
1.0E-17                  188                      2.943988250074458E-7
1.0E-17                  189                      2.931165159337437E-7
1.0E-17                  190                      2.9184786555842134E-7
1.0E-17                  191                      2.905928738814786E-7
1.0E-17                  192                      2.893515409029158E-7
1.0E-17                  193                      2.8812386662273223E-7
1.0E-17                  194                      2.8690985104092864E-7
1.0E-17                  195                      2.857094941575046E-7
1.0E-17                  196                      2.845227959724603E-7
1.0E-17                  197                      2.833487208290745E-7
1.0E-17                  198                      2.8218598865201094E-7
1.0E-17                  199                      2.810363467004576E-7
1.0E-17                  200                      2.798997949744144E-7
1.0E-17                  201                      2.7877633347388126E-7
1.0E-17                  202                      2.7766596219885834E-7
1.0E-17                  203                      2.7656868114934554E-7
1.0E-17                  204                      2.754844903253428E-7
1.0E-17                  205                      2.7441338972685013E-7
1.0E-17                  206                      2.733553793538678E-7
1.0E-17                  207                      2.7230654967148236E-7
1.0E-17                  208                      2.7125759370149835E-7
1.0E-17                  209                      2.702187764443743E-7
1.0E-17                  210                      2.6919009790011044E-7
1.0E-17                  211                      2.681715580687065E-7
1.0E-17                  212                      2.671631569501625E-7
1.0E-17                  213                      2.661648945444788E-7
1.0E-17                  214                      2.651767708516549E-7
1.0E-17                  215                      2.6419878587169096E-7
1.0E-17                  216                      2.632309396045872E-7
1.0E-17                  217                      2.6227323205034346E-7
1.0E-17                  218                      2.613256632089598E-7
1.0E-17                  219                      2.603882330804361E-7
1.0E-17                  220                      2.5946094166477236E-7
1.0E-17                  221                      2.585437889619689E-7
1.0E-17                  222                      2.5763677497202517E-7
1.0E-17                  223                      2.567398996949417E-7
1.0E-17                  224                      2.5585316313071814E-7
1.0E-17                  225                      2.5497656527935475E-7
1.0E-17                  226                      2.541101061408512E-7
1.0E-17                  227                      2.532522345190746E-7
1.0E-17                  228                      2.523827441010332E-7
1.0E-17                  229                      2.5152120645850767E-7
1.0E-17                  230                      2.5066762159149804E-7
1.0E-17                  231                      2.498219895000042E-7
1.0E-17                  232                      2.4898431018402634E-7
1.0E-17                  233                      2.481545836435642E-7
1.0E-17                  234                      2.473328098786182E-7
1.0E-17                  235                      2.4651898888918787E-7
1.0E-17                  236                      2.457131206752735E-7
1.0E-17                  237                      2.44915205236875E-7
1.0E-17                  238                      2.4412524257399225E-7
1.0E-17                  239                      2.433432326866254E-7
1.0E-17                  240                      2.425691755747746E-7
1.0E-17                  241                      2.418030712384396E-7
1.0E-17                  242                      2.4104491967762037E-7
1.0E-17                  243                      2.402947208923171E-7
1.0E-17                  244                      2.3955247488252974E-7
1.0E-17                  245                      2.388181816482581E-7
1.0E-17                  246                      2.3809184118950252E-7
1.0E-17                  247                      2.3737345350626277E-7
1.0E-17                  248                      2.3664096883573345E-7
1.0E-17                  249                      2.3591131754570906E-7
1.0E-17                  250                      2.3518725178308867E-7
1.0E-17                  251                      2.344687715478724E-7
1.0E-17                  252                      2.3375587684006032E-7
1.0E-17                  253                      2.3304856765965206E-7
1.0E-17                  254                      2.3234684400664796E-7
1.0E-17                  255                      2.3165070588104797E-7
1.0E-17                  256                      2.3096015328285199E-7
1.0E-17                  257                      2.3027518621206E-7
1.0E-17                  258                      2.2959580466867207E-7
1.0E-17                  259                      2.2892200865268827E-7
1.0E-17                  260                      2.282537981641085E-7
1.0E-17                  261                      2.2759117320293274E-7
1.0E-17                  262                      2.2693413376916102E-7
1.0E-17                  263                      2.2628267986279336E-7
1.0E-17                  264                      2.256368114838298E-7
1.0E-17                  265                      2.2499652863227028E-7
1.0E-17                  266                      2.2436183130811472E-7
1.0E-17                  267                      2.2373271951136337E-7
1.0E-17                  268                      2.2309799422476285E-7
1.0E-17                  269                      2.224627100155393E-7
1.0E-17                  270                      2.2183147531563973E-7
1.0E-17                  271                      2.2120429012506406E-7
1.0E-17                  272                      2.2058115444381235E-7
1.0E-17                  273                      2.199620682718846E-7
1.0E-17                  274                      2.1934703160928082E-7
1.0E-17                  275                      2.18736044456001E-7
1.0E-17                  276                      2.181291068120451E-7
1.0E-17                  277                      2.175262186774131E-7
1.0E-17                  278                      2.1692738005210512E-7
1.0E-17                  279                      2.1633259093612118E-7
1.0E-17                  280                      2.1574185132946113E-7
1.0E-17                  281                      2.1515516123212488E-7
1.0E-17                  282                      2.1457252064411282E-7
1.0E-17                  283                      2.139939295654246E-7
1.0E-17                  284                      2.134193879960603E-7
1.0E-17                  285                      2.1284889593602002E-7
1.0E-17                  286                      2.122824533853037E-7
1.0E-17                  287                      2.1172006034391126E-7
1.0E-17                  288                      2.111552692960184E-7
1.0E-17                  289                      2.105874705082497E-7
1.0E-17                  290                      2.1002250516141857E-7
1.0E-17                  291                      2.0946037325552496E-7
1.0E-17                  292                      2.0890107479056897E-7
1.0E-17                  293                      2.0834460976655054E-7
1.0E-17                  294                      2.0779097818346973E-7
1.0E-17                  295                      2.0724018004132633E-7
1.0E-17                  296                      2.066922153401206E-7
1.0E-17                  297                      2.0614708407985248E-7
1.0E-17                  298                      2.0560478626052183E-7
1.0E-17                  299                      2.0506532188212877E-7
1.0E-17                  300                      2.0452869094467333E-7
1.0E-17                  301                      2.039948934481554E-7
1.0E-17                  302                      2.0346392939257506E-7
1.0E-17                  303                      2.0293579877793218E-7
1.0E-17                  304                      2.02410501604227E-7
1.0E-17                  305                      2.018880378714593E-7
1.0E-17                  306                      2.0136840757962917E-7
1.0E-17                  307                      2.0085161072873666E-7
1.0E-17                  308                      2.003376473187817E-7
1.0E-17                  309                      1.998265173497643E-7
1.0E-17                  310                      1.9931822082168444E-7
1.0E-17                  311                      1.9881275773454211E-7
1.0E-17                  312                      1.9831012808833743E-7
1.0E-17                  313                      1.9781033188307026E-7
1.0E-17                  314                      1.9731336911874066E-7
1.0E-17                  315                      1.9681923979534867E-7
1.0E-17                  316                      1.9632794391289414E-7
1.0E-17                  317                      1.9583948147137734E-7
1.0E-17                  318                      1.9535385247079794E-7
1.0E-17                  319                      1.9487105691115614E-7
1.0E-17                  320                      1.9439109479245198E-7
1.0E-17                  321                      1.9391396611468536E-7
1.0E-17                  322                      1.934396708778563E-7
1.0E-17                  323                      1.9296820908196487E-7
1.0E-17                  324                      1.924995807270108E-7
1.0E-17                  325                      1.9203378581299445E-7
1.0E-17                  326                      1.9157082433991558E-7
1.0E-17                  327                      1.9111069630777435E-7
1.0E-17                  328                      1.9065207255518584E-7
1.0E-17                  329                      1.901878827709278E-7
1.0E-17                  330                      1.897260592974671E-7
1.0E-17                  331                      1.8926660213480374E-7
1.0E-17                  332                      1.8880951128293765E-7
1.0E-17                  333                      1.883547867418689E-7
1.0E-17                  334                      1.8790242851159753E-7
1.0E-17                  335                      1.8745243659212343E-7
1.0E-17                  336                      1.8700481098344662E-7
1.0E-17                  337                      1.865595516855672E-7
1.0E-17                  338                      1.8611665869848513E-7
1.0E-17                  339                      1.8567613202220026E-7
1.0E-17                  340                      1.8523797165671283E-7
1.0E-17                  341                      1.8480217760202263E-7
1.0E-17                  342                      1.843687498581298E-7
1.0E-17                  343                      1.8393768842503427E-7
1.0E-17                  344                      1.8350899330273596E-7
1.0E-17                  345                      1.8308266449123511E-7
1.0E-17                  346                      1.8265870199053155E-7
1.0E-17                  347                      1.822371058006252E-7
1.0E-17                  348                      1.818178759215163E-7
1.0E-17                  349                      1.814010123532046E-7
1.0E-17                  350                      1.8098651509569036E-7
1.0E-17                  351                      1.8057438414897335E-7
1.0E-17                  352                      1.801646195130537E-7
1.0E-17                  353                      1.7975722118793135E-7
1.0E-17                  354                      1.793521891736063E-7
1.0E-17                  355                      1.7894952347007852E-7
1.0E-17                  356                      1.785492240773482E-7
1.0E-17                  357                      1.7815129099541508E-7
1.0E-17                  358                      1.7775572422427926E-7
1.0E-17                  359                      1.7736252376394086E-7
1.0E-17                  360                      1.7697168961439973E-7
1.0E-17                  361                      1.7658322177565596E-7
1.0E-17                  362                      1.761971202477094E-7
1.0E-17                  363                      1.758133850305603E-7
1.0E-17                  364                      1.754320161242084E-7
1.0E-17                  365                      1.7505301352865382E-7
1.0E-17                  366                      1.746763772438967E-7
1.0E-17                  367                      1.7430210726993679E-7
1.0E-17                  368                      1.739302036067742E-7
1.0E-17                  369                      1.735511904219181E-7
1.0E-17                  370                      1.731711612021572E-7
1.0E-17                  371                      1.727928989714713E-7
1.0E-17                  372                      1.7241640372986066E-7
1.0E-17                  373                      1.7204167547732505E-7
1.0E-17                  374                      1.7166871421386464E-7
1.0E-17                  375                      1.7129751993947921E-7
1.0E-17                  376                      1.7092809265416902E-7
1.0E-17                  377                      1.705604323579339E-7
1.0E-17                  378                      1.7019453905077393E-7
1.0E-17                  379                      1.6983041273268908E-7
1.0E-17                  380                      1.6946805340367928E-7
1.0E-17                  381                      1.6910746106374472E-7
1.0E-17                  382                      1.6874863571288516E-7
1.0E-17                  383                      1.683915773511008E-7
1.0E-17                  384                      1.6803628597839157E-7
1.0E-17                  385                      1.6768276159475746E-7
1.0E-17                  386                      1.6733100420019845E-7
1.0E-17                  387                      1.6698101379471455E-7
1.0E-17                  388                      1.6663279037830586E-7
1.0E-17                  389                      1.6628633395097212E-7
1.0E-17                  390                      1.6594164451271357E-7
1.0E-17                  391                      1.655987220635303E-7
1.0E-17                  392                      1.6525756660342195E-7
1.0E-17                  393                      1.649181781323888E-7
1.0E-17                  394                      1.645805566504308E-7
1.0E-17                  395                      1.6424470215754787E-7
1.0E-17                  396                      1.6391061465374005E-7
1.0E-17                  397                      1.6357829413900747E-7
1.0E-17                  398                      1.632477406133499E-7
1.0E-17                  399                      1.6291895407676747E-7
1.0E-17                  400                      1.6259193452926015E-7
1.0E-17                  401                      1.6226668197082794E-7
1.0E-17                  402                      1.6194319640147094E-7
1.0E-17                  403                      1.6162147782118896E-7
1.0E-17                  404                      1.613015262299822E-7
1.0E-17                  405                      1.6098334162785055E-7
1.0E-17                  406                      1.6066692401479394E-7
1.0E-17                  407                      1.603522733908124E-7
1.0E-17                  408                      1.6003938975590608E-7
1.0E-17                  409                      1.597229027887371E-7
1.0E-17                  410                      1.593995551112174E-7
1.0E-17                  411                      1.5907731046546745E-7
1.0E-17                  412                      1.5875616885148738E-7
1.0E-17                  413                      1.5843613026927733E-7