% Model:              NP_reactive_flow_TCE_in_Low_Permeable.mph
% Version:            COMSOL 5.2.0.166
% Date:               Jun 7 2020, 21:51
% Table:              tce_retention_mass_0 - tce_outflow_mass_Inte (tce_outflow_Inte)
% lowPM_per              t (s)                    tce_retention_mass (mol/m)
1.0E-10                  0                        2.343942897057987E-4
1.0E-10                  1                        2.3439428733284547E-4
1.0E-10                  2                        2.3439437794972723E-4
1.0E-10                  3                        2.3439388070740317E-4
1.0E-10                  4                        2.3438261059738108E-4
1.0E-10                  5                        2.3434031805727622E-4
1.0E-10                  6                        2.3424697503698894E-4
1.0E-10                  7                        2.3408979190061733E-4
1.0E-10                  8                        2.3386272392678952E-4
1.0E-10                  9                        2.3356564337873015E-4
1.0E-10                  10                       2.332012523653272E-4
1.0E-10                  11                       2.3277421727772578E-4
1.0E-10                  12                       2.3228992457859278E-4
1.0E-10                  13                       2.317534350390929E-4
1.0E-10                  14                       2.311699330993875E-4
1.0E-10                  15                       2.3054359248892323E-4
1.0E-10                  16                       2.298781173154611E-4
1.0E-10                  17                       2.2917781134399148E-4
1.0E-10                  18                       2.2844428129835262E-4
1.0E-10                  19                       2.2767927068059182E-4
1.0E-10                  20                       2.268857894144036E-4
1.0E-10                  21                       2.2606487545697934E-4
1.0E-10                  22                       2.2521824661014448E-4
1.0E-10                  23                       2.2434790123947214E-4
1.0E-10                  24                       2.234547404345069E-4
1.0E-10                  25                       2.225398515382531E-4
1.0E-10                  26                       2.2160461830221477E-4
1.0E-10                  27                       2.2064986317969795E-4
1.0E-10                  28                       2.1967627818726947E-4
1.0E-10                  29                       2.1868486876254793E-4
1.0E-10                  30                       2.1767640983490948E-4
1.0E-10                  31                       2.1665135080604136E-4
1.0E-10                  32                       2.1561045032345288E-4
1.0E-10                  33                       2.1455445348560954E-4
1.0E-10                  34                       2.1348364475598633E-4
1.0E-10                  35                       2.1239861312043337E-4
1.0E-10                  36                       2.1130003553010199E-4
1.0E-10                  37                       2.1018810637613987E-4
1.0E-10                  38                       2.0906329578305893E-4
1.0E-10                  39                       2.0792614882350713E-4
1.0E-10                  40                       2.067768731532912E-4
1.0E-10                  41                       2.0561582587671053E-4
1.0E-10                  42                       2.0444345293254266E-4
1.0E-10                  43                       2.0325997493227032E-4
1.0E-10                  44                       2.0206566383843778E-4
1.0E-10                  45                       2.0086088868758467E-4
1.0E-10                  46                       1.9964608353606426E-4
1.0E-10                  47                       1.9842140715714416E-4
1.0E-10                  48                       1.971867756436639E-4
1.0E-10                  49                       1.9594283391388207E-4
1.0E-10                  50                       1.9468941226152248E-4
1.0E-10                  51                       1.9342662526860042E-4
1.0E-10                  52                       1.921553043711851E-4
1.0E-10                  53                       1.908750212040603E-4
1.0E-10                  54                       1.8958628751702988E-4
1.0E-10                  55                       1.8828936692700626E-4
1.0E-10                  56                       1.8698401810183287E-4
1.0E-10                  57                       1.8567104848758923E-4
1.0E-10                  58                       1.8435014100776315E-4
1.0E-10                  59                       1.830214693562816E-4
1.0E-10                  60                       1.816855055398417E-4
1.0E-10                  61                       1.8034198417784104E-4
1.0E-10                  62                       1.789913185160659E-4
1.0E-10                  63                       1.776335769326997E-4
1.0E-10                  64                       1.7626866219345305E-4
1.0E-10                  65                       1.748971265920613E-4
1.0E-10                  66                       1.7351871323570948E-4
1.0E-10                  67                       1.721336216044331E-4
1.0E-10                  68                       1.707421293472714E-4
1.0E-10                  69                       1.6934406021444677E-4
1.0E-10                  70                       1.6793980295426396E-4
1.0E-10                  71                       1.665293205438069E-4
1.0E-10                  72                       1.651126074194224E-4
1.0E-10                  73                       1.6369006979779753E-4
1.0E-10                  74                       1.6226150668926186E-4
1.0E-10                  75                       1.608271365171885E-4
1.0E-10                  76                       1.5938712772444401E-4
1.0E-10                  77                       1.5794135080332504E-4
1.0E-10                  78                       1.5649020543395136E-4
1.0E-10                  79                       1.5503357276806969E-4
1.0E-10                  80                       1.5357151944202333E-4
1.0E-10                  81                       1.5210436648291695E-4
1.0E-10                  82                       1.5063194258814155E-4
1.0E-10                  83                       1.491545061053207E-4
1.0E-10                  84                       1.4767214724871458E-4
1.0E-10                  85                       1.461847668640532E-4
1.0E-10                  86                       1.4469281686219117E-4
1.0E-10                  87                       1.4319609346634957E-4
1.0E-10                  88                       1.41694690421231E-4
1.0E-10                  89                       1.401887850895362E-4
1.0E-10                  90                       1.3867857165560275E-4
1.0E-10                  91                       1.3716410446815386E-4
1.0E-10                  92                       1.3564551278329154E-4
1.0E-10                  93                       1.3412291147416034E-4
1.0E-10                  94                       1.3259640656266265E-4
1.0E-10                  95                       1.310660921618151E-4
1.0E-10                  96                       1.2953204899023238E-4
1.0E-10                  97                       1.2799400259616532E-4
1.0E-10                  98                       1.2645221765946195E-4
1.0E-10                  99                       1.2490740952853308E-4
1.0E-10                  100                      1.2335991207940579E-4
1.0E-10                  101                      1.2180960033214341E-4
1.0E-10                  102                      1.2025566657558267E-4
1.0E-10                  103                      1.1869845934585284E-4
1.0E-10                  104                      1.1713821431729773E-4
1.0E-10                  105                      1.1557506195123405E-4
1.0E-10                  106                      1.1400917071987954E-4
1.0E-10                  107                      1.124414954941205E-4
1.0E-10                  108                      1.1087186234578282E-4
1.0E-10                  109                      1.093002977120269E-4
1.0E-10                  110                      1.0772703895998764E-4
1.0E-10                  111                      1.0615228549482037E-4
1.0E-10                  112                      1.045760448700815E-4
1.0E-10                  113                      1.0299854693377939E-4
1.0E-10                  114                      1.0142002408488062E-4
1.0E-10                  115                      9.984072713055696E-5
1.0E-10                  116                      9.826092556230628E-5
1.0E-10                  117                      9.668129212391324E-5
1.0E-10                  118                      9.510205750140935E-5
1.0E-10                  119                      9.352338884732163E-5
1.0E-10                  120                      9.19455442244764E-5
1.0E-10                  121                      9.036898245859282E-5
1.0E-10                  122                      8.879425025465125E-5
1.0E-10                  123                      8.72215034505267E-5
1.0E-10                  124                      8.565103544375145E-5
1.0E-10                  125                      8.408330534287281E-5
1.0E-10                  126                      8.251889937159457E-5
1.0E-10                  127                      8.095830942704958E-5
1.0E-10                  128                      7.940204372467053E-5
1.0E-10                  129                      7.785052233319403E-5
1.0E-10                  130                      7.630486018522872E-5
1.0E-10                  131                      7.47661199310465E-5
1.0E-10                  132                      7.323321912353078E-5
1.0E-10                  133                      7.170725655036325E-5
1.0E-10                  134                      7.018895071476978E-5
1.0E-10                  135                      6.867894756590669E-5
1.0E-10                  136                      6.717817246205986E-5
1.0E-10                  137                      6.568722574826842E-5
1.0E-10                  138                      6.420665571558849E-5
1.0E-10                  139                      6.273714721604345E-5
1.0E-10                  140                      6.127944414791514E-5
1.0E-10                  141                      5.983437850253E-5
1.0E-10                  142                      5.840255158210706E-5
1.0E-10                  143                      5.6984637240907044E-5
1.0E-10                  144                      5.558141580536326E-5
1.0E-10                  145                      5.419365409718316E-5
1.0E-10                  146                      5.282210986074421E-5
1.0E-10                  147                      5.14675168574682E-5
1.0E-10                  148                      5.013058136495997E-5
1.0E-10                  149                      4.881198416137614E-5
1.0E-10                  150                      4.751238342210932E-5
1.0E-10                  151                      4.6232416956554557E-5
1.0E-10                  152                      4.497270433595301E-5
1.0E-10                  153                      4.373403042343E-5
1.0E-10                  154                      4.251697628052781E-5
1.0E-10                  155                      4.132185043500566E-5
1.0E-10                  156                      4.014904757134999E-5
1.0E-10                  157                      3.899914901232751E-5
1.0E-10                  158                      3.7872414262142635E-5
1.0E-10                  159                      3.676953050982227E-5
1.0E-10                  160                      3.569044531315007E-5
1.0E-10                  161                      3.4635859647564385E-5
1.0E-10                  162                      3.360562969915727E-5
1.0E-10                  163                      3.26002064599294E-5
1.0E-10                  164                      3.1619524066649895E-5
1.0E-10                  165                      3.0663769159030413E-5
1.0E-10                  166                      2.9732884689417637E-5
1.0E-10                  167                      2.8826886346487804E-5
1.0E-10                  168                      2.794562759077405E-5
1.0E-10                  169                      2.7089073200756855E-5
1.0E-10                  170                      2.625686910378769E-5
1.0E-10                  171                      2.5449033167296458E-5
1.0E-10                  172                      2.466497665455233E-5
1.0E-10                  173                      2.390473173584668E-5
1.0E-10                  174                      2.3167622252557773E-5
1.0E-10                  175                      2.24535474083305E-5
1.0E-10                  176                      2.1761886084084203E-5
1.0E-10                  177                      2.1092314448856114E-5
1.0E-10                  178                      2.0444384993479418E-5
1.0E-10                  179                      1.9817464378422262E-5
1.0E-10                  180                      1.921139149735296E-5
1.0E-10                  181                      1.8625141404538468E-5
1.0E-10                  182                      1.8058838340488574E-5
1.0E-10                  183                      1.7511296981046098E-5
1.0E-10                  184                      1.698262894815617E-5
1.0E-10                  185                      1.6471784206701464E-5
1.0E-10                  186                      1.5978655669686495E-5
1.0E-10                  187                      1.550245142822426E-5
1.0E-10                  188                      1.5042791735731425E-5
1.0E-10                  189                      1.4599198271872177E-5
1.0E-10                  190                      1.4170970139132502E-5
1.0E-10                  191                      1.3757988578102741E-5
1.0E-10                  192                      1.3359191728366038E-5
1.0E-10                  193                      1.2974746119471226E-5
1.0E-10                  194                      1.260354837400363E-5
1.0E-10                  195                      1.2245689405811835E-5
1.0E-10                  196                      1.1900259339632981E-5
1.0E-10                  197                      1.1567147005814544E-5
1.0E-10                  198                      1.1245704715979106E-5
1.0E-10                  199                      1.0935590216789865E-5
1.0E-10                  200                      1.0636445052188966E-5
1.0E-10                  201                      1.034767509748604E-5
1.0E-10                  202                      1.0069228623537222E-5
1.0E-10                  203                      9.800246355234958E-6
1.0E-10                  204                      9.540889595732653E-6
1.0E-10                  205                      9.290338129064887E-6
1.0E-10                  206                      9.048645910705146E-6
1.0E-10                  207                      8.815173252851648E-6
1.0E-10                  208                      8.589822952376563E-6
1.0E-10                  209                      8.372159081305314E-6
1.0E-10                  210                      8.161919170831642E-6
1.0E-10                  211                      7.958880430560765E-6
1.0E-10                  212                      7.76260632016806E-6
1.0E-10                  213                      7.573086596179964E-6
1.0E-10                  214                      7.389721616051618E-6
1.0E-10                  215                      7.212627582770755E-6
1.0E-10                  216                      7.041259797034409E-6
1.0E-10                  217                      6.875642688254825E-6
1.0E-10                  218                      6.715365274000588E-6
1.0E-10                  219                      6.5603493036176415E-6
1.0E-10                  220                      6.4103243921525056E-6
1.0E-10                  221                      6.2651027271902154E-6
1.0E-10                  222                      6.124557582206064E-6
1.0E-10                  223                      5.988388082263732E-6
1.0E-10                  224                      5.856600845309906E-6
1.0E-10                  225                      5.728811577440436E-6
1.0E-10                  226                      5.6050881261990166E-6
1.0E-10                  227                      5.485091327103841E-6
1.0E-10                  228                      5.368828419051817E-6
1.0E-10                  229                      5.256048290557549E-6
1.0E-10                  230                      5.146691441887865E-6
1.0E-10                  231                      5.040597789451461E-6
1.0E-10                  232                      4.937637268899303E-6
1.0E-10                  233                      4.837741888555047E-6
1.0E-10                  234                      4.7407091291237386E-6
1.0E-10                  235                      4.64655166241864E-6
1.0E-10                  236                      4.555026928638083E-6
1.0E-10                  237                      4.46617312432443E-6
1.0E-10                  238                      4.3797814103524615E-6
1.0E-10                  239                      4.295850653256661E-6
1.0E-10                  240                      4.214228730917868E-6
1.0E-10                  241                      4.134871530206796E-6
1.0E-10                  242                      4.0576852692159815E-6
1.0E-10                  243                      3.9825806224281015E-6
1.0E-10                  244                      3.909522547410468E-6
1.0E-10                  245                      3.83837540771354E-6
1.0E-10                  246                      3.769152615563652E-6
1.0E-10                  247                      3.7017013355713313E-6
1.0E-10                  248                      3.6360425191945734E-6
1.0E-10                  249                      3.572047688730187E-6
1.0E-10                  250                      3.5097122329735E-6
1.0E-10                  251                      3.4489439034785353E-6
1.0E-10                  252                      3.389710204254122E-6
1.0E-10                  253                      3.331956194261787E-6
1.0E-10                  254                      3.275620008730225E-6
1.0E-10                  255                      3.2206843888550705E-6
1.0E-10                  256                      3.1670572974524652E-6
1.0E-10                  257                      3.1147508154621986E-6
1.0E-10                  258                      3.0636669951498133E-6
1.0E-10                  259                      3.0138171271790312E-6
1.0E-10                  260                      2.965120781678742E-6
1.0E-10                  261                      2.9175723289815848E-6
1.0E-10                  262                      2.8711148471577223E-6
1.0E-10                  263                      2.825724222606532E-6
1.0E-10                  264                      2.781367863934217E-6
1.0E-10                  265                      2.738002129330412E-6
1.0E-10                  266                      2.69561914722279E-6
1.0E-10                  267                      2.654155140454314E-6
1.0E-10                  268                      2.613615878801054E-6
1.0E-10                  269                      2.5738928358867266E-6
1.0E-10                  270                      2.5350217903969585E-6
1.0E-10                  271                      2.497002742331742E-6
1.0E-10                  272                      2.460976378559413E-6
1.0E-10                  273                      2.426442756345423E-6
1.0E-10                  274                      2.391909134131437E-6
1.0E-10                  275                      2.3573755119174505E-6
1.0E-10                  276                      2.324789512219525E-6
1.0E-10                  277                      2.292646040773435E-6
1.0E-10                  278                      2.2605025693273487E-6
1.0E-10                  279                      2.2289739199216342E-6
1.0E-10                  280                      2.2007660016091365E-6
1.0E-10                  281                      2.172558083296641E-6
1.0E-10                  282                      2.144350164984145E-6
1.0E-10                  283                      2.116142246671648E-6
1.0E-10                  284                      2.087934328359153E-6
1.0E-10                  285                      2.0597264100466574E-6
1.0E-10                  286                      2.03151849173416E-6
1.0E-10                  287                      2.0061034780355058E-6
1.0E-10                  288                      1.9812245648649747E-6
1.0E-10                  289                      1.956345651694446E-6
1.0E-10                  290                      1.9314667385239135E-6
1.0E-10                  291                      1.9065878253533843E-6
1.0E-10                  292                      1.881708912182854E-6
1.0E-10                  293                      1.8568299990123218E-6
1.0E-10                  294                      1.8334199940797594E-6
1.0E-10                  295                      1.8113567051778552E-6
1.0E-10                  296                      1.7892934162759553E-6
1.0E-10                  297                      1.7672301273740547E-6
1.0E-10                  298                      1.7451668384721535E-6
1.0E-10                  299                      1.723103549570254E-6
1.0E-10                  300                      1.7010402606683524E-6
1.0E-10                  301                      1.6794672801147572E-6
1.0E-10                  302                      1.6598023238980415E-6
1.0E-10                  303                      1.6401373676813288E-6
1.0E-10                  304                      1.6204724114646157E-6
1.0E-10                  305                      1.6008074552479018E-6
1.0E-10                  306                      1.5811424990311874E-6
1.0E-10                  307                      1.5614775428144762E-6
1.0E-10                  308                      1.5418125865977598E-6
1.0E-10                  309                      1.5239725202008031E-6
1.0E-10                  310                      1.5063645302251343E-6
1.0E-10                  311                      1.4887565402494643E-6
1.0E-10                  312                      1.4711485502737955E-6
1.0E-10                  313                      1.4535405602981263E-6
1.0E-10                  314                      1.4359325703224573E-6
1.0E-10                  315                      1.4183245803467878E-6
1.0E-10                  316                      1.4017287025825685E-6
1.0E-10                  317                      1.38589661724833E-6
1.0E-10                  318                      1.3700645319140885E-6
1.0E-10                  319                      1.3542324465798485E-6
1.0E-10                  320                      1.3384003612456096E-6
1.0E-10                  321                      1.322568275911368E-6
1.0E-10                  322                      1.3067361905771283E-6
1.0E-10                  323                      1.2910562911024096E-6
1.0E-10                  324                      1.275926236038077E-6
1.0E-10                  325                      1.2609553252218093E-6
1.0E-10                  326                      1.2461435586536063E-6
1.0E-10                  327                      1.2314909363334677E-6
1.0E-10                  328                      1.2169974582613944E-6
1.0E-10                  329                      1.2026631244373837E-6
1.0E-10                  330                      1.1884879348614386E-6
1.0E-10                  331                      1.1744718895335583E-6
1.0E-10                  332                      1.1606149884537413E-6
1.0E-10                  333                      1.1469172316219898E-6
1.0E-10                  334                      1.1333786190383018E-6
1.0E-10                  335                      1.1199991507026777E-6
1.0E-10                  336                      1.1067788266151204E-6
1.0E-10                  337                      1.0937176467756245E-6
1.0E-10                  338                      1.0808467053215204E-6
1.0E-10                  339                      1.0681594543120451E-6
1.0E-10                  340                      1.0556379436100573E-6
1.0E-10                  341                      1.043282173215553E-6
1.0E-10                  342                      1.0310921431285334E-6
1.0E-10                  343                      1.0190678533489957E-6
1.0E-10                  344                      1.0072093038769436E-6
1.0E-10                  345                      9.955164947123748E-7
1.0E-10                  346                      9.839894258552918E-7
1.0E-10                  347                      9.72628097305692E-7
1.0E-10                  348                      9.614325090635771E-7
1.0E-10                  349                      9.50402661128946E-7
1.0E-10                  350                      9.395385535017972E-7
1.0E-10                  351                      9.288401861821355E-7
1.0E-10                  352                      9.183075591699566E-7
1.0E-10                  353                      9.077294725554182E-7
1.0E-10                  354                      8.972863349522475E-7
1.0E-10                  355                      8.86981441363222E-7
1.0E-10                  356                      8.768147917883459E-7
1.0E-10                  357                      8.667863862276145E-7
1.0E-10                  358                      8.568962246810298E-7
1.0E-10                  359                      8.471443071485932E-7
1.0E-10                  360                      8.37530633630302E-7
1.0E-10                  361                      8.28055204126158E-7
1.0E-10                  362                      8.187180186361615E-7
1.0E-10                  363                      8.095190771603114E-7
1.0E-10                  364                      8.004583796986081E-7
1.0E-10                  365                      7.915359262510499E-7
1.0E-10                  366                      7.8275171681764E-7
1.0E-10                  367                      7.740347668941715E-7
1.0E-10                  368                      7.653053899940805E-7
1.0E-10                  369                      7.566871145428805E-7
1.0E-10                  370                      7.48179940540572E-7
1.0E-10                  371                      7.397838679871576E-7
1.0E-10                  372                      7.314988968826352E-7
1.0E-10                  373                      7.23325027227005E-7
1.0E-10                  374                      7.152622590202676E-7
1.0E-10                  375                      7.073105922624231E-7
1.0E-10                  376                      6.994700269534717E-7
1.0E-10                  377                      6.917405630934113E-7
1.0E-10                  378                      6.841222006822452E-7
1.0E-10                  379                      6.766149397199698E-7
1.0E-10                  380                      6.69218780206588E-7
1.0E-10                  381                      6.61933722142098E-7
1.0E-10                  382                      6.546393902425104E-7
1.0E-10                  383                      6.473892559470433E-7
1.0E-10                  384                      6.402282724330274E-7
1.0E-10                  385                      6.331564397004627E-7
1.0E-10                  386                      6.261737577493483E-7
1.0E-10                  387                      6.192802265796843E-7
1.0E-10                  388                      6.124758461914703E-7
1.0E-10                  389                      6.057606165847084E-7
1.0E-10                  390                      5.991345377593959E-7
1.0E-10                  391                      5.925976097155343E-7
1.0E-10                  392                      5.861498324531243E-7
1.0E-10                  393                      5.797912059721639E-7
1.0E-10                  394                      5.735217302726543E-7
1.0E-10                  395                      5.673414053545955E-7
1.0E-10                  396                      5.612402754720406E-7
1.0E-10                  397                      5.55104727727068E-7
1.0E-10                  398                      5.490414231544269E-7
1.0E-10                  399                      5.430503617541178E-7
1.0E-10                  400                      5.371315435261408E-7
1.0E-10                  401                      5.312849684704949E-7
1.0E-10                  402                      5.255106365871817E-7
1.0E-10                  403                      5.198085478762002E-7
1.0E-10                  404                      5.141787023375497E-7
1.0E-10                  405                      5.086210999712312E-7
1.0E-10                  406                      5.031357407772446E-7
1.0E-10                  407                      4.977226247555898E-7
1.0E-10                  408                      4.923817519062669E-7
1.0E-10                  409                      4.871131222292753E-7
1.0E-10                  410                      4.81916735724616E-7
1.0E-10                  411                      4.767490035651788E-7
1.0E-10                  412                      4.7158988464436153E-7
1.0E-10                  413                      4.66490032771359E-7
1.0E-10                  414                      4.614494479461715E-7