% Model:              NP_reactive_flow_TCE_in_Low_Permeable.mph
% Version:            COMSOL 5.2.0.166
% Date:               Jun 7 2020, 21:51
% Table:              tce_retention_mass_1 - tce_outflow_mass_Inte (tce_outflow_Inte)
% lowPM_per              t (s)                    tce_retention_mass (mol/m)
1.0E-11                  0                        2.3439428970580364E-4
1.0E-11                  1                        2.3439428761857828E-4
1.0E-11                  2                        2.3439435171156587E-4
1.0E-11                  3                        2.3439411276888672E-4
1.0E-11                  4                        2.3438822764519803E-4
1.0E-11                  5                        2.343674307140407E-4
1.0E-11                  6                        2.3432404551857898E-4
1.0E-11                  7                        2.342547744977124E-4
1.0E-11                  8                        2.3415913782100727E-4
1.0E-11                  9                        2.3403836728905147E-4
1.0E-11                  10                       2.338944715819817E-4
1.0E-11                  11                       2.3372898295476925E-4
1.0E-11                  12                       2.3354350706145506E-4
1.0E-11                  13                       2.3333950322932713E-4
1.0E-11                  14                       2.3311819452661453E-4
1.0E-11                  15                       2.3288056409876656E-4
1.0E-11                  16                       2.3262739992827938E-4
1.0E-11                  17                       2.3235935899733353E-4
1.0E-11                  18                       2.3207696834027792E-4
1.0E-11                  19                       2.3178066198605227E-4
1.0E-11                  20                       2.3147082134555562E-4
1.0E-11                  21                       2.3114777962560042E-4
1.0E-11                  22                       2.3081183147728517E-4
1.0E-11                  23                       2.3046332166088852E-4
1.0E-11                  24                       2.3010240857914742E-4
1.0E-11                  25                       2.297293842362528E-4
1.0E-11                  26                       2.293443155126448E-4
1.0E-11                  27                       2.2894756147988663E-4
1.0E-11                  28                       2.285392977311086E-4
1.0E-11                  29                       2.2811966127857537E-4
1.0E-11                  30                       2.2768893118889808E-4
1.0E-11                  31                       2.2724714671417946E-4
1.0E-11                  32                       2.2679446114903928E-4
1.0E-11                  33                       2.2633102264737613E-4
1.0E-11                  34                       2.2585685092665902E-4
1.0E-11                  35                       2.253720724819789E-4
1.0E-11                  36                       2.2487674155318083E-4
1.0E-11                  37                       2.243709051463651E-4
1.0E-11                  38                       2.2385465938980255E-4
1.0E-11                  39                       2.2332802097681074E-4
1.0E-11                  40                       2.2279104802243788E-4
1.0E-11                  41                       2.2224380102474253E-4
1.0E-11                  42                       2.2168628992430238E-4
1.0E-11                  43                       2.2111856972052596E-4
1.0E-11                  44                       2.205406692561726E-4
1.0E-11                  45                       2.199526138989474E-4
1.0E-11                  46                       2.1935446941467415E-4
1.0E-11                  47                       2.187462624170885E-4
1.0E-11                  48                       2.1812805181620993E-4
1.0E-11                  49                       2.1749995589614301E-4
1.0E-11                  50                       2.1686201635641046E-4
1.0E-11                  51                       2.162144032930441E-4
1.0E-11                  52                       2.1555727282697885E-4
1.0E-11                  53                       2.1489074745929804E-4
1.0E-11                  54                       2.1421519510473371E-4
1.0E-11                  55                       2.1353074904313735E-4
1.0E-11                  56                       2.1283772481581773E-4
1.0E-11                  57                       2.121366251956036E-4
1.0E-11                  58                       2.1142759021941371E-4
1.0E-11                  59                       2.1071122006033772E-4
1.0E-11                  60                       2.0998789903736633E-4
1.0E-11                  61                       2.0925795272324819E-4
1.0E-11                  62                       2.085221691499085E-4
1.0E-11                  63                       2.0778073296516666E-4
1.0E-11                  64                       2.070342151095526E-4
1.0E-11                  65                       2.0628330030107532E-4
1.0E-11                  66                       2.0552815303365437E-4
1.0E-11                  67                       2.0476949514353847E-4
1.0E-11                  68                       2.0400767317184935E-4
1.0E-11                  69                       2.0324301397914624E-4
1.0E-11                  70                       2.024761835009224E-4
1.0E-11                  71                       2.017072859622012E-4
1.0E-11                  72                       2.0093675455399728E-4
1.0E-11                  73                       2.0016469022878934E-4
1.0E-11                  74                       1.993918656573614E-4
1.0E-11                  75                       1.986183179152502E-4
1.0E-11                  76                       1.9784408067787887E-4
1.0E-11                  77                       1.970693204512539E-4
1.0E-11                  78                       1.9629422648739399E-4
1.0E-11                  79                       1.955189698364285E-4
1.0E-11                  80                       1.9474370082359224E-4
1.0E-11                  81                       1.939685475235956E-4
1.0E-11                  82                       1.9319355946499224E-4
1.0E-11                  83                       1.9241892388188059E-4
1.0E-11                  84                       1.9164482976969483E-4
1.0E-11                  85                       1.9087138181310946E-4
1.0E-11                  86                       1.9009864737852143E-4
1.0E-11                  87                       1.8932667864529848E-4
1.0E-11                  88                       1.8855552405693337E-4
1.0E-11                  89                       1.8778522718542652E-4
1.0E-11                  90                       1.8701582378545924E-4
1.0E-11                  91                       1.8624734299775415E-4
1.0E-11                  92                       1.85479809941899E-4
1.0E-11                  93                       1.8471324735464068E-4
1.0E-11                  94                       1.8394767622434841E-4
1.0E-11                  95                       1.8318311586596123E-4
1.0E-11                  96                       1.824195840036272E-4
1.0E-11                  97                       1.8165709692974448E-4
1.0E-11                  98                       1.808956697863966E-4
1.0E-11                  99                       1.8013531686078945E-4
1.0E-11                  100                      1.7937602771946585E-4
1.0E-11                  101                      1.7861782164444058E-4
1.0E-11                  102                      1.7786075304089403E-4
1.0E-11                  103                      1.771048684873565E-4
1.0E-11                  104                      1.763502003288296E-4
1.0E-11                  105                      1.7559676821948177E-4
1.0E-11                  106                      1.748445850103408E-4
1.0E-11                  107                      1.740936621646865E-4
1.0E-11                  108                      1.7334401280179692E-4
1.0E-11                  109                      1.7259565228182805E-4
1.0E-11                  110                      1.7184859802357142E-4
1.0E-11                  111                      1.7110286984697645E-4
1.0E-11                  112                      1.703584912909789E-4
1.0E-11                  113                      1.6961548937510277E-4
1.0E-11                  114                      1.6887389428237308E-4
1.0E-11                  115                      1.681337399767989E-4
1.0E-11                  116                      1.6739506338011337E-4
1.0E-11                  117                      1.666579039163125E-4
1.0E-11                  118                      1.659223141278865E-4
1.0E-11                  119                      1.6518833532290538E-4
1.0E-11                  120                      1.6445602080485187E-4
1.0E-11                  121                      1.6372539525310342E-4
1.0E-11                  122                      1.6299656883308355E-4
1.0E-11                  123                      1.6226955158834798E-4
1.0E-11                  124                      1.6154442137283906E-4
1.0E-11                  125                      1.6082123205576407E-4
1.0E-11                  126                      1.6010000808290377E-4
1.0E-11                  127                      1.593808251867197E-4
1.0E-11                  128                      1.586636922620194E-4
1.0E-11                  129                      1.5794865480937275E-4
1.0E-11                  130                      1.5723578227087582E-4
1.0E-11                  131                      1.565250765224012E-4
1.0E-11                  132                      1.558165291972238E-4
1.0E-11                  133                      1.5511019847643721E-4
1.0E-11                  134                      1.5440611123597266E-4
1.0E-11                  135                      1.5370423514304583E-4
1.0E-11                  136                      1.5300460564733511E-4
1.0E-11                  137                      1.5230732331043928E-4
1.0E-11                  138                      1.5161232279219607E-4
1.0E-11                  139                      1.5091960409260532E-4
1.0E-11                  140                      1.5022929448359852E-4
1.0E-11                  141                      1.495413276846906E-4
1.0E-11                  142                      1.4885570274463935E-4
1.0E-11                  143                      1.4817247065706694E-4
1.0E-11                  144                      1.474916333464446E-4
1.0E-11                  145                      1.468131744182092E-4
1.0E-11                  146                      1.461370990331699E-4
1.0E-11                  147                      1.4546341428449871E-4
1.0E-11                  148                      1.447921147355068E-4
1.0E-11                  149                      1.441231968002125E-4
1.0E-11                  150                      1.4345662751468963E-4
1.0E-11                  151                      1.4279242570053197E-4
1.0E-11                  152                      1.4213059135773955E-4
1.0E-11                  153                      1.4147102210785963E-4
1.0E-11                  154                      1.40813744203507E-4
1.0E-11                  155                      1.4015877373644976E-4
1.0E-11                  156                      1.3950611070668816E-4
1.0E-11                  157                      1.3885575511422195E-4
1.0E-11                  158                      1.3820770695905139E-4
1.0E-11                  159                      1.375619236221226E-4
1.0E-11                  160                      1.3691828627009693E-4
1.0E-11                  161                      1.3627690581190151E-4
1.0E-11                  162                      1.3563778224753625E-4
1.0E-11                  163                      1.350009155770011E-4
1.0E-11                  164                      1.3436630580029613E-4
1.0E-11                  165                      1.3373395291742122E-4
1.0E-11                  166                      1.3310366730939714E-4
1.0E-11                  167                      1.3247547798274524E-4
1.0E-11                  168                      1.318494669596864E-4
1.0E-11                  169                      1.3122563424022117E-4
1.0E-11                  170                      1.3060397982434912E-4
1.0E-11                  171                      1.299845037120702E-4
1.0E-11                  172                      1.2936717983725413E-4
1.0E-11                  173                      1.2875170269647151E-4
1.0E-11                  174                      1.281383115734618E-4
1.0E-11                  175                      1.2752700646822513E-4
1.0E-11                  176                      1.2691778738076128E-4
1.0E-11                  177                      1.2631065431107033E-4
1.0E-11                  178                      1.2570560725915221E-4
1.0E-11                  179                      1.2510247553236263E-4
1.0E-11                  180                      1.2450118965645344E-4
1.0E-11                  181                      1.2390189412021132E-4
1.0E-11                  182                      1.2330458892363612E-4
1.0E-11                  183                      1.2270927406672782E-4
1.0E-11                  184                      1.221159495494863E-4
1.0E-11                  185                      1.2152461537191183E-4
1.0E-11                  186                      1.209349802178218E-4
1.0E-11                  187                      1.2034723002382616E-4
1.0E-11                  188                      1.1976138600013867E-4
1.0E-11                  189                      1.1917744814675937E-4
1.0E-11                  190                      1.1859541646368842E-4
1.0E-11                  191                      1.1801529095092567E-4
1.0E-11                  192                      1.1743699442619953E-4
1.0E-11                  193                      1.1686041136094195E-4
1.0E-11                  194                      1.1628566914736064E-4
1.0E-11                  195                      1.1571276778545538E-4
1.0E-11                  196                      1.151417072752265E-4
1.0E-11                  197                      1.145724876166738E-4
1.0E-11                  198                      1.1400510880979721E-4
1.0E-11                  199                      1.1343943383708927E-4
1.0E-11                  200                      1.1287551329828743E-4
1.0E-11                  201                      1.1231338451343572E-4
1.0E-11                  202                      1.1175304748253438E-4
1.0E-11                  203                      1.1119450220558298E-4
1.0E-11                  204                      1.1063774868258193E-4
1.0E-11                  205                      1.1008276296626782E-4
1.0E-11                  206                      1.0952943596271409E-4
1.0E-11                  207                      1.0897786116651138E-4
1.0E-11                  208                      1.0842803857765961E-4
1.0E-11                  209                      1.0787996819615895E-4
1.0E-11                  210                      1.0733365002200927E-4
1.0E-11                  211                      1.0678908405521056E-4
1.0E-11                  212                      1.0624619389053098E-4
1.0E-11                  213                      1.0570497613779667E-4
1.0E-11                  214                      1.0516547499996016E-4
1.0E-11                  215                      1.0462769047702128E-4
1.0E-11                  216                      1.0409162256898008E-4
1.0E-11                  217                      1.0355727127583648E-4
1.0E-11                  218                      1.0302463465373215E-4
1.0E-11                  219                      1.0249358391730533E-4
1.0E-11                  220                      1.019642149503006E-4
1.0E-11                  221                      1.0143652775271804E-4
1.0E-11                  222                      1.0091052232455762E-4
1.0E-11                  223                      1.003861986658193E-4
1.0E-11                  224                      9.986355677650316E-5
1.0E-11                  225                      9.934254223293115E-5
1.0E-11                  226                      9.882311344363395E-5
1.0E-11                  227                      9.83053308283092E-5
1.0E-11                  228                      9.778919438695741E-5
1.0E-11                  229                      9.727470411957833E-5
1.0E-11                  230                      9.676186002617205E-5
1.0E-11                  231                      9.62506621067385E-5
1.0E-11                  232                      9.574099342587082E-5
1.0E-11                  233                      9.523291690904626E-5
1.0E-11                  234                      9.472644976601116E-5
1.0E-11                  235                      9.422159199676558E-5
1.0E-11                  236                      9.371834360130945E-5
1.0E-11                  237                      9.321670457964285E-5
1.0E-11                  238                      9.271663960004923E-5
1.0E-11                  239                      9.221806616976734E-5
1.0E-11                  240                      9.172106442823481E-5
1.0E-11                  241                      9.122563437545152E-5
1.0E-11                  242                      9.073177601141758E-5
1.0E-11                  243                      9.023948933613303E-5
1.0E-11                  244                      8.974877434959769E-5
1.0E-11                  245                      8.925953656026273E-5
1.0E-11                  246                      8.877179673527981E-5
1.0E-11                  247                      8.828559107590285E-5
1.0E-11                  248                      8.78009195821317E-5
1.0E-11                  249                      8.731778225396633E-5
1.0E-11                  250                      8.683617909140678E-5
1.0E-11                  251                      8.635609672848305E-5
1.0E-11                  252                      8.587742188215708E-5
1.0E-11                  253                      8.540024531738925E-5
1.0E-11                  254                      8.492456703417949E-5
1.0E-11                  255                      8.445038703252787E-5
1.0E-11                  256                      8.397770531243439E-5
1.0E-11                  257                      8.350652187389902E-5
1.0E-11                  258                      8.303677474812959E-5
1.0E-11                  259                      8.25684458432757E-5
1.0E-11                  260                      8.210158234852648E-5
1.0E-11                  261                      8.163618426388177E-5
1.0E-11                  262                      8.11722515893418E-5
1.0E-11                  263                      8.070978432490646E-5
1.0E-11                  264                      8.024878247057582E-5
1.0E-11                  265                      7.978914277553398E-5
1.0E-11                  266                      7.93309347914129E-5
1.0E-11                  267                      7.887416332275874E-5
1.0E-11                  268                      7.841882836957158E-5
1.0E-11                  269                      7.796492993185135E-5
1.0E-11                  270                      7.751246800959808E-5
1.0E-11                  271                      7.706141136017143E-5
1.0E-11                  272                      7.661172084523515E-5
1.0E-11                  273                      7.616344240828452E-5
1.0E-11                  274                      7.571657604931966E-5
1.0E-11                  275                      7.527112176834049E-5
1.0E-11                  276                      7.482707956534709E-5
1.0E-11                  277                      7.438444944033935E-5
1.0E-11                  278                      7.394317378658674E-5
1.0E-11                  279                      7.350327684909523E-5
1.0E-11                  280                      7.306477211617768E-5
1.0E-11                  281                      7.262765958783421E-5
1.0E-11                  282                      7.21919392640648E-5
1.0E-11                  283                      7.175761114486945E-5
1.0E-11                  284                      7.132466444636034E-5
1.0E-11                  285                      7.089305900215875E-5
1.0E-11                  286                      7.046283031460921E-5
1.0E-11                  287                      7.003397838371175E-5
1.0E-11                  288                      6.960650320946638E-5
1.0E-11                  289                      6.918040479187307E-5
1.0E-11                  290                      6.875568313093184E-5
1.0E-11                  291                      6.833231280608406E-5
1.0E-11                  292                      6.791029478327371E-5
1.0E-11                  293                      6.748964222076015E-5
1.0E-11                  294                      6.707035511854364E-5
1.0E-11                  295                      6.665243347662399E-5
1.0E-11                  296                      6.62358772950013E-5
1.0E-11                  297                      6.582068551112069E-5
1.0E-11                  298                      6.540683196117117E-5
1.0E-11                  299                      6.499433649315431E-5
1.0E-11                  300                      6.458319910707022E-5
1.0E-11                  301                      6.41734198029188E-5
1.0E-11                  302                      6.376499858070017E-5
1.0E-11                  303                      6.335793544041415E-5
1.0E-11                  304                      6.29522244384488E-5
1.0E-11                  305                      6.254786193808445E-5
1.0E-11                  306                      6.214485386946589E-5
1.0E-11                  307                      6.174320023259324E-5
1.0E-11                  308                      6.134290102746637E-5
1.0E-11                  309                      6.094395625408536E-5
1.0E-11                  310                      6.054636591245017E-5
1.0E-11                  311                      6.015012968422344E-5
1.0E-11                  312                      5.975524775377409E-5
1.0E-11                  313                      5.936172015825439E-5
1.0E-11                  314                      5.8969546897664305E-5
1.0E-11                  315                      5.8578727972003845E-5
1.0E-11                  316                      5.818926338127297E-5
1.0E-11                  317                      5.780115648731945E-5
1.0E-11                  318                      5.7414413884574314E-5
1.0E-11                  319                      5.702902887248419E-5
1.0E-11                  320                      5.6645001451048914E-5
1.0E-11                  321                      5.6262331620268576E-5
1.0E-11                  322                      5.5881019380143184E-5
1.0E-11                  323                      5.550106473067269E-5
1.0E-11                  324                      5.512248430701172E-5
1.0E-11                  325                      5.474527342346047E-5
1.0E-11                  326                      5.4369426469234256E-5
1.0E-11                  327                      5.3994943444333004E-5
1.0E-11                  328                      5.362182434875677E-5
1.0E-11                  329                      5.3250069182505495E-5
1.0E-11                  330                      5.287968213617836E-5
1.0E-11                  331                      5.251069036871677E-5
1.0E-11                  332                      5.214307157746365E-5
1.0E-11                  333                      5.1776825762419096E-5
1.0E-11                  334                      5.1411952923583E-5
1.0E-11                  335                      5.104845306095547E-5
1.0E-11                  336                      5.068632617453639E-5
1.0E-11                  337                      5.032559470696928E-5
1.0E-11                  338                      4.996626287365754E-5
1.0E-11                  339                      4.960831531102595E-5
1.0E-11                  340                      4.925175201907448E-5
1.0E-11                  341                      4.889657299780311E-5
1.0E-11                  342                      4.854277824721192E-5
1.0E-11                  343                      4.819036776730079E-5
1.0E-11                  344                      4.7839389680430936E-5
1.0E-11                  345                      4.748980996091733E-5
1.0E-11                  346                      4.7141627566303084E-5
1.0E-11                  347                      4.6794842496588233E-5
1.0E-11                  348                      4.644945475177273E-5
1.0E-11                  349                      4.610546433185666E-5
1.0E-11                  350                      4.57628909371994E-5
1.0E-11                  351                      4.542175508440667E-5
1.0E-11                  352                      4.508203087339531E-5
1.0E-11                  353                      4.4743718304165255E-5
1.0E-11                  354                      4.4406817376716626E-5
1.0E-11                  355                      4.407132809104929E-5
1.0E-11                  356                      4.373725044716331E-5
1.0E-11                  357                      4.340462975778709E-5
1.0E-11                  358                      4.307344476657783E-5
1.0E-11                  359                      4.274368648441261E-5
1.0E-11                  360                      4.241535491129147E-5
1.0E-11                  361                      4.208845004721439E-5
1.0E-11                  362                      4.176297189218135E-5
1.0E-11                  363                      4.1438932537398313E-5
1.0E-11                  364                      4.111636926861097E-5
1.0E-11                  365                      4.079524798864723E-5
1.0E-11                  366                      4.0475568697507016E-5
1.0E-11                  367                      4.015733139519038E-5
1.0E-11                  368                      3.98405360816973E-5
1.0E-11                  369                      3.9525182757027785E-5
1.0E-11                  370                      3.921130659819167E-5
1.0E-11                  371                      3.889890360630206E-5
1.0E-11                  372                      3.8587957542285536E-5
1.0E-11                  373                      3.827846840614208E-5
1.0E-11                  374                      3.797043619787172E-5
1.0E-11                  375                      3.7663860917474404E-5
1.0E-11                  376                      3.7358745840539845E-5
1.0E-11                  377                      3.7055138703549667E-5
1.0E-11                  378                      3.6753002556391255E-5
1.0E-11                  379                      3.6452337399064616E-5
1.0E-11                  380                      3.6153143231569716E-5
1.0E-11                  381                      3.58554200539066E-5
1.0E-11                  382                      3.555916786607525E-5
1.0E-11                  383                      3.5264408521757594E-5
1.0E-11                  384                      3.497115242406219E-5
1.0E-11                  385                      3.467937996035336E-5
1.0E-11                  386                      3.438909113063109E-5
1.0E-11                  387                      3.410028593489536E-5
1.0E-11                  388                      3.3812964373146194E-5
1.0E-11                  389                      3.352712644538359E-5
1.0E-11                  390                      3.32428085858916E-5
1.0E-11                  391                      3.2959988284796746E-5
1.0E-11                  392                      3.267866233603118E-5
1.0E-11                  393                      3.239883073959495E-5
1.0E-11                  394                      3.2120493495488015E-5
1.0E-11                  395                      3.1843650603710385E-5
1.0E-11                  396                      3.156831148133666E-5
1.0E-11                  397                      3.1294491656440856E-5
1.0E-11                  398                      3.1022174529797775E-5
1.0E-11                  399                      3.075136010140743E-5
1.0E-11                  400                      3.0482048371269837E-5
1.0E-11                  401                      3.0214239339385E-5
1.0E-11                  402                      2.9947933005752897E-5
1.0E-11                  403                      2.968314464056048E-5
1.0E-11                  404                      2.9419869064356955E-5
1.0E-11                  405                      2.915810177728203E-5
1.0E-11                  406                      2.8897842779335704E-5
1.0E-11                  407                      2.8639092070517973E-5
1.0E-11                  408                      2.8381849650828838E-5
1.0E-11                  409                      2.8126116911703898E-5
1.0E-11                  410                      2.7871900992139035E-5
1.0E-11                  411                      2.761919587038747E-5
1.0E-11                  412                      2.7368001546449153E-5
1.0E-11                  413                      2.7118318020324115E-5
1.0E-11                  414                      2.687014529201236E-5