% Model:              NP_reactive_flow_TCE_in_Low_Permeable.mph
% Version:            COMSOL 5.2.0.166
% Date:               Jun 7 2020, 21:51
% Table:              tce_retention_mass_7 - Global Evaluation 14 (TimeInt)
% lowPM_per              t (s)                    tce_retention_mass (mol/m)
1.0E-17                  0                        2.3439428970580459E-4
1.0E-17                  1                        2.3439428734653642E-4
1.0E-17                  2                        2.343943502988406E-4
1.0E-17                  3                        2.3439407010742474E-4
1.0E-17                  4                        2.3438858108800663E-4
1.0E-17                  5                        2.3436992657359753E-4
1.0E-17                  6                        2.3433211166145647E-4
1.0E-17                  7                        2.3427324113383134E-4
1.0E-17                  8                        2.3419392733675198E-4
1.0E-17                  9                        2.3409611477275414E-4
1.0E-17                  10                       2.3398219419705116E-4
1.0E-17                  11                       2.338538093926303E-4
1.0E-17                  12                       2.3371259326118263E-4
1.0E-17                  13                       2.3355996255435238E-4
1.0E-17                  14                       2.3339708441767084E-4
1.0E-17                  15                       2.332248991337322E-4
1.0E-17                  16                       2.3304416256023604E-4
1.0E-17                  17                       2.3285550217467838E-4
1.0E-17                  18                       2.3265938379134806E-4
1.0E-17                  19                       2.3245619107748828E-4
1.0E-17                  20                       2.3224624058633067E-4
1.0E-17                  21                       2.32029800305093E-4
1.0E-17                  22                       2.3180710598879803E-4
1.0E-17                  23                       2.3157837008801362E-4
1.0E-17                  24                       2.3134378544395639E-4
1.0E-17                  25                       2.3110360693178082E-4
1.0E-17                  26                       2.3085787935216335E-4
1.0E-17                  27                       2.3060679260873538E-4
1.0E-17                  28                       2.3035045028375344E-4
1.0E-17                  29                       2.300889906971683E-4
1.0E-17                  30                       2.2982263048552644E-4
1.0E-17                  31                       2.2955137500019223E-4
1.0E-17                  32                       2.2927536850529223E-4
1.0E-17                  33                       2.2899467043147208E-4
1.0E-17                  34                       2.2870930734060824E-4
1.0E-17                  35                       2.2841932992174392E-4
1.0E-17                  36                       2.2812473476454084E-4
1.0E-17                  37                       2.2782553372281315E-4
1.0E-17                  38                       2.2752173140747883E-4
1.0E-17                  39                       2.2721333238384113E-4
1.0E-17                  40                       2.2690035032698442E-4
1.0E-17                  41                       2.2658282409289892E-4
1.0E-17                  42                       2.2626077663908458E-4
1.0E-17                  43                       2.259342969242352E-4
1.0E-17                  44                       2.2560345340774887E-4
1.0E-17                  45                       2.252683222687547E-4
1.0E-17                  46                       2.2492911640918022E-4
1.0E-17                  47                       2.2458588476130238E-4
1.0E-17                  48                       2.2423883380135004E-4
1.0E-17                  49                       2.2388818287111037E-4
1.0E-17                  50                       2.2353402869428345E-4
1.0E-17                  51                       2.2317668152909347E-4
1.0E-17                  52                       2.2281627092162528E-4
1.0E-17                  53                       2.224529700833985E-4
1.0E-17                  54                       2.2208710116284111E-4
1.0E-17                  55                       2.2171869643899456E-4
1.0E-17                  56                       2.2134799213836294E-4
1.0E-17                  57                       2.2097510323682376E-4
1.0E-17                  58                       2.2060018568802474E-4
1.0E-17                  59                       2.202233686846553E-4
1.0E-17                  60                       2.1984473898284488E-4
1.0E-17                  61                       2.1946436991762854E-4
1.0E-17                  62                       2.1908231268261987E-4
1.0E-17                  63                       2.1869858486041793E-4
1.0E-17                  64                       2.1831318869296683E-4
1.0E-17                  65                       2.1792612498804266E-4
1.0E-17                  66                       2.1753740211334204E-4
1.0E-17                  67                       2.1714643538590556E-4
1.0E-17                  68                       2.1675420409995093E-4
1.0E-17                  69                       2.1636050557252286E-4
1.0E-17                  70                       2.1596535182536537E-4
1.0E-17                  71                       2.1556856479025587E-4
1.0E-17                  72                       2.151702194885133E-4
1.0E-17                  73                       2.147701593900209E-4
1.0E-17                  74                       2.143683669884169E-4
1.0E-17                  75                       2.1396492158650475E-4
1.0E-17                  76                       2.13559877589772E-4
1.0E-17                  77                       2.1315324321488538E-4
1.0E-17                  78                       2.1274502569659456E-4
1.0E-17                  79                       2.1233524202647595E-4
1.0E-17                  80                       2.1192391104959458E-4
1.0E-17                  81                       2.1151102532094933E-4
1.0E-17                  82                       2.110965916848731E-4
1.0E-17                  83                       2.1068065003817648E-4
1.0E-17                  84                       2.1026324147904588E-4
1.0E-17                  85                       2.0984439122142726E-4
1.0E-17                  86                       2.094241261158308E-4
1.0E-17                  87                       2.090024760205645E-4
1.0E-17                  88                       2.085794760502001E-4
1.0E-17                  89                       2.081551642424054E-4
1.0E-17                  90                       2.0772957748700806E-4
1.0E-17                  91                       2.0730276388718476E-4
1.0E-17                  92                       2.0687477485505117E-4
1.0E-17                  93                       2.0644567901918808E-4
1.0E-17                  94                       2.0601555151630857E-4
1.0E-17                  95                       2.055844770236527E-4
1.0E-17                  96                       2.051525631400031E-4
1.0E-17                  97                       2.0471990769215597E-4
1.0E-17                  98                       2.0428662400136287E-4
1.0E-17                  99                       2.0385281253045196E-4
1.0E-17                  100                      2.03418600894468E-4
1.0E-17                  101                      2.0298412038806016E-4
1.0E-17                  102                      2.0254950617304237E-4
1.0E-17                  103                      2.0211490182638945E-4
1.0E-17                  104                      2.0168040577299182E-4
1.0E-17                  105                      2.01246140944773E-4
1.0E-17                  106                      2.0081222528631575E-4
1.0E-17                  107                      2.0037877768477587E-4
1.0E-17                  108                      1.9994590901483377E-4
1.0E-17                  109                      1.9951376848431951E-4
1.0E-17                  110                      1.990824675961529E-4
1.0E-17                  111                      1.9865200192231445E-4
1.0E-17                  112                      1.9822262709423698E-4
1.0E-17                  113                      1.9779422358784168E-4
1.0E-17                  114                      1.9736700977905695E-4
1.0E-17                  115                      1.9694108602659658E-4
1.0E-17                  116                      1.9651638421031286E-4
1.0E-17                  117                      1.9609323297877442E-4
1.0E-17                  118                      1.956714828664721E-4
1.0E-17                  119                      1.952512791465755E-4
1.0E-17                  120                      1.9483271588925194E-4
1.0E-17                  121                      1.9441572600600347E-4
1.0E-17                  122                      1.9400051621908278E-4
1.0E-17                  123                      1.9358699493028016E-4
1.0E-17                  124                      1.9317523067348045E-4
1.0E-17                  125                      1.9276528297052414E-4
1.0E-17                  126                      1.9235710981854514E-4
1.0E-17                  127                      1.919508695729258E-4
1.0E-17                  128                      1.915464938476283E-4
1.0E-17                  129                      1.9114398260427473E-4
1.0E-17                  130                      1.9074333584286467E-4
1.0E-17                  131                      1.9034455356339836E-4
1.0E-17                  132                      1.8994775044297354E-4
1.0E-17                  133                      1.8955285660385429E-4
1.0E-17                  134                      1.8915986735219725E-4
1.0E-17                  135                      1.8876878268800308E-4
1.0E-17                  136                      1.8837960261127137E-4
1.0E-17                  137                      1.879924199228228E-4
1.0E-17                  138                      1.8760718415176435E-4
1.0E-17                  139                      1.8722388735308967E-4
1.0E-17                  140                      1.8684252952679914E-4
1.0E-17                  141                      1.8646311067289313E-4
1.0E-17                  142                      1.8608562291688377E-4
1.0E-17                  143                      1.8571006997081967E-4
1.0E-17                  144                      1.8533645289760484E-4
1.0E-17                  145                      1.849647716972395E-4
1.0E-17                  146                      1.8459502636972353E-4
1.0E-17                  147                      1.8422712530723786E-4
1.0E-17                  148                      1.8386110430716884E-4
1.0E-17                  149                      1.834969807595879E-4
1.0E-17                  150                      1.831347546644946E-4
1.0E-17                  151                      1.8277442602188907E-4
1.0E-17                  152                      1.8241585892242974E-4
1.0E-17                  153                      1.8205909420381823E-4
1.0E-17                  154                      1.817041660009256E-4
1.0E-17                  155                      1.8135107431375145E-4
1.0E-17                  156                      1.809998191422963E-4
1.0E-17                  157                      1.806502538205304E-4
1.0E-17                  158                      1.8030240748599446E-4
1.0E-17                  159                      1.7995632710283193E-4
1.0E-17                  160                      1.796120126710426E-4
1.0E-17                  161                      1.7926946419062677E-4
1.0E-17                  162                      1.7892854090624543E-4
1.0E-17                  163                      1.7858925449407487E-4
1.0E-17                  164                      1.7825166105657386E-4
1.0E-17                  165                      1.7791576059374183E-4
1.0E-17                  166                      1.7758155310557965E-4
1.0E-17                  167                      1.7724881231521845E-4
1.0E-17                  168                      1.7691752696700087E-4
1.0E-17                  169                      1.7658780755938988E-4
1.0E-17                  170                      1.7625965409238538E-4
1.0E-17                  171                      1.7593306656598688E-4
1.0E-17                  172                      1.7560804498019495E-4
1.0E-17                  173                      1.752845893350091E-4
1.0E-17                  174                      1.749626996304296E-4
1.0E-17                  175                      1.7464237586645653E-4
1.0E-17                  176                      1.7432361804308981E-4
1.0E-17                  177                      1.740061571871742E-4
1.0E-17                  178                      1.7368995573749195E-4
1.0E-17                  179                      1.7337522559348438E-4
1.0E-17                  180                      1.7306196675515107E-4
1.0E-17                  181                      1.7275017922249237E-4
1.0E-17                  182                      1.724398629955085E-4
1.0E-17                  183                      1.7213101807419886E-4
1.0E-17                  184                      1.7182364445856376E-4
1.0E-17                  185                      1.715177421486035E-4
1.0E-17                  186                      1.7121331114431772E-4
1.0E-17                  187                      1.7091003559640796E-4
1.0E-17                  188                      1.7060773463011043E-4
1.0E-17                  189                      1.703067692778935E-4
1.0E-17                  190                      1.700071395397569E-4
1.0E-17                  191                      1.6970884541570025E-4
1.0E-17                  192                      1.6941188690572433E-4
1.0E-17                  193                      1.691162640098281E-4
1.0E-17                  194                      1.6882197672801248E-4
1.0E-17                  195                      1.6852902506027688E-4
1.0E-17                  196                      1.6823740900662182E-4
1.0E-17                  197                      1.6794688147659954E-4
1.0E-17                  198                      1.676571370655509E-4
1.0E-17                  199                      1.673685926404225E-4
1.0E-17                  200                      1.6708124820121424E-4
1.0E-17                  201                      1.6679510374792574E-4
1.0E-17                  202                      1.6651015928055758E-4
1.0E-17                  203                      1.6622641479910915E-4
1.0E-17                  204                      1.6594387030358074E-4
1.0E-17                  205                      1.6566252579397272E-4
1.0E-17                  206                      1.6538238127028446E-4
1.0E-17                  207                      1.6510317411179553E-4
1.0E-17                  208                      1.6482427912768905E-4
1.0E-17                  209                      1.6454638586336666E-4
1.0E-17                  210                      1.6426949431882858E-4
1.0E-17                  211                      1.6399360449407486E-4
1.0E-17                  212                      1.6371871638910546E-4
1.0E-17                  213                      1.6344483000391976E-4
1.0E-17                  214                      1.6317194533851874E-4
1.0E-17                  215                      1.629000623929015E-4
1.0E-17                  216                      1.6262918116706875E-4
1.0E-17                  217                      1.6235930166102E-4
1.0E-17                  218                      1.620904238747557E-4
1.0E-17                  219                      1.618225478082755E-4
1.0E-17                  220                      1.6155567346157922E-4
1.0E-17                  221                      1.6128980083466747E-4
1.0E-17                  222                      1.6102492992753968E-4
1.0E-17                  223                      1.607610607401963E-4
1.0E-17                  224                      1.604981932726369E-4
1.0E-17                  225                      1.60236327524862E-4
1.0E-17                  226                      1.5997546349687104E-4
1.0E-17                  227                      1.5971552254212304E-4
1.0E-17                  228                      1.5945548018886363E-4
1.0E-17                  229                      1.591963287271003E-4
1.0E-17                  230                      1.5893806815683376E-4
1.0E-17                  231                      1.586806984780637E-4
1.0E-17                  232                      1.5842421969079046E-4
1.0E-17                  233                      1.5816863179501358E-4
1.0E-17                  234                      1.5791393479073346E-4
1.0E-17                  235                      1.576601286779498E-4
1.0E-17                  236                      1.5740721345666302E-4
1.0E-17                  237                      1.571551891268725E-4
1.0E-17                  238                      1.5690405568857867E-4
1.0E-17                  239                      1.5665381314178132E-4
1.0E-17                  240                      1.5640446148648083E-4
1.0E-17                  241                      1.5615600072267673E-4
1.0E-17                  242                      1.5590843085036936E-4
1.0E-17                  243                      1.5566175186955856E-4
1.0E-17                  244                      1.5541596378024447E-4
1.0E-17                  245                      1.5517106658242684E-4
1.0E-17                  246                      1.5492706027610585E-4
1.0E-17                  247                      1.546839448612815E-4
1.0E-17                  248                      1.5444051275685671E-4
1.0E-17                  249                      1.5419769117426204E-4
1.0E-17                  250                      1.5395563083804735E-4
1.0E-17                  251                      1.5371433174821272E-4
1.0E-17                  252                      1.5347379390475796E-4
1.0E-17                  253                      1.5323401730768285E-4
1.0E-17                  254                      1.529950019569879E-4
1.0E-17                  255                      1.5275674785267292E-4
1.0E-17                  256                      1.5251925499473767E-4
1.0E-17                  257                      1.5228252338318242E-4
1.0E-17                  258                      1.5204655301800728E-4
1.0E-17                  259                      1.518113438992119E-4
1.0E-17                  260                      1.5157689602679638E-4
1.0E-17                  261                      1.5134320940076102E-4
1.0E-17                  262                      1.5111028402110512E-4
1.0E-17                  263                      1.5087811988782952E-4
1.0E-17                  264                      1.50646717000934E-4
1.0E-17                  265                      1.5041607536041792E-4
1.0E-17                  266                      1.5018619496628199E-4
1.0E-17                  267                      1.49957075818526E-4
1.0E-17                  268                      1.4972799230492933E-4
1.0E-17                  269                      1.4949927192349155E-4
1.0E-17                  270                      1.492712132659969E-4
1.0E-17                  271                      1.4904381633244475E-4
1.0E-17                  272                      1.4881708112283578E-4
1.0E-17                  273                      1.4859100763716946E-4
1.0E-17                  274                      1.48365595875446E-4
1.0E-17                  275                      1.4814084583766543E-4
1.0E-17                  276                      1.479167575238276E-4
1.0E-17                  277                      1.476933309339329E-4
1.0E-17                  278                      1.474705660679808E-4
1.0E-17                  279                      1.472484629259714E-4
1.0E-17                  280                      1.4702702150790512E-4
1.0E-17                  281                      1.4680624181378149E-4
1.0E-17                  282                      1.465861238436008E-4
1.0E-17                  283                      1.463666675973631E-4
1.0E-17                  284                      1.461478730750678E-4
1.0E-17                  285                      1.4592974027671584E-4
1.0E-17                  286                      1.4571226920230624E-4
1.0E-17                  287                      1.4549545985183967E-4
1.0E-17                  288                      1.4527867142877658E-4
1.0E-17                  289                      1.4506184333380238E-4
1.0E-17                  290                      1.4484555610189432E-4
1.0E-17                  291                      1.446298097330527E-4
1.0E-17                  292                      1.4441460422727744E-4
1.0E-17                  293                      1.441999395845687E-4
1.0E-17                  294                      1.439858158049262E-4
1.0E-17                  295                      1.4377223288834966E-4
1.0E-17                  296                      1.4355919083483968E-4
1.0E-17                  297                      1.4334668964439628E-4
1.0E-17                  298                      1.4313472931701875E-4
1.0E-17                  299                      1.4292330985270777E-4
1.0E-17                  300                      1.4271243125146303E-4
1.0E-17                  301                      1.4250209351328463E-4
1.0E-17                  302                      1.4229229663817268E-4
1.0E-17                  303                      1.4208304062612683E-4
1.0E-17                  304                      1.4187432547714743E-4
1.0E-17                  305                      1.416661511912344E-4
1.0E-17                  306                      1.414585177683873E-4
1.0E-17                  307                      1.4125142520860715E-4
1.0E-17                  308                      1.410448735118929E-4
1.0E-17                  309                      1.4083886267824493E-4
1.0E-17                  310                      1.4063339270766365E-4
1.0E-17                  311                      1.4042846360014832E-4
1.0E-17                  312                      1.402240753556994E-4
1.0E-17                  313                      1.4002022797431697E-4
1.0E-17                  314                      1.3981692145600063E-4
1.0E-17                  315                      1.396141558007507E-4
1.0E-17                  316                      1.394119310085672E-4
1.0E-17                  317                      1.392102470794499E-4
1.0E-17                  318                      1.3900910401339896E-4
1.0E-17                  319                      1.388085018104143E-4
1.0E-17                  320                      1.38608440470496E-4
1.0E-17                  321                      1.3840891999364409E-4
1.0E-17                  322                      1.3820994037985827E-4
1.0E-17                  323                      1.3801150162913897E-4
1.0E-17                  324                      1.378136037414859E-4
1.0E-17                  325                      1.3761624671689907E-4
1.0E-17                  326                      1.3741943055537868E-4
1.0E-17                  327                      1.3722315525692462E-4
1.0E-17                  328                      1.3702723295465428E-4
1.0E-17                  329                      1.3683066431369097E-4
1.0E-17                  330                      1.3663457051049093E-4
1.0E-17                  331                      1.364389515450542E-4
1.0E-17                  332                      1.3624380741738076E-4
1.0E-17                  333                      1.3604913812747036E-4
1.0E-17                  334                      1.358549436753236E-4
1.0E-17                  335                      1.3566122406093975E-4
1.0E-17                  336                      1.3546797928431944E-4
1.0E-17                  337                      1.3527520934546237E-4
1.0E-17                  338                      1.3508291424436843E-4
1.0E-17                  339                      1.3489109398103782E-4
1.0E-17                  340                      1.3469974855547063E-4
1.0E-17                  341                      1.3450887796766638E-4
1.0E-17                  342                      1.3431848221762583E-4
1.0E-17                  343                      1.341285613053484E-4
1.0E-17                  344                      1.3393911523083428E-4
1.0E-17                  345                      1.337501439940833E-4
1.0E-17                  346                      1.3356164759509566E-4
1.0E-17                  347                      1.3337362603387125E-4
1.0E-17                  348                      1.3318607931041022E-4
1.0E-17                  349                      1.3299900742471229E-4
1.0E-17                  350                      1.328124103767777E-4
1.0E-17                  351                      1.3262628816660644E-4
1.0E-17                  352                      1.3244064079419838E-4
1.0E-17                  353                      1.3225546825955368E-4
1.0E-17                  354                      1.3207077056267216E-4
1.0E-17                  355                      1.318865477035541E-4
1.0E-17                  356                      1.317027996821991E-4
1.0E-17                  357                      1.3151952649860746E-4
1.0E-17                  358                      1.3133672815277914E-4
1.0E-17                  359                      1.311544046447141E-4
1.0E-17                  360                      1.3097255597441232E-4
1.0E-17                  361                      1.307911821418738E-4
1.0E-17                  362                      1.3061028314709848E-4
1.0E-17                  363                      1.3042985899008652E-4
1.0E-17                  364                      1.302499096708379E-4
1.0E-17                  365                      1.300704351893523E-4
1.0E-17                  366                      1.2989143554563014E-4
1.0E-17                  367                      1.2971291073967132E-4
1.0E-17                  368                      1.2953486077147588E-4
1.0E-17                  369                      1.2935601853990733E-4
1.0E-17                  370                      1.2917719886139937E-4
1.0E-17                  371                      1.2899877387980845E-4
1.0E-17                  372                      1.2882074359513447E-4
1.0E-17                  373                      1.2864310800737744E-4
1.0E-17                  374                      1.2846586711653726E-4
1.0E-17                  375                      1.2828902092261443E-4
1.0E-17                  376                      1.281125694256082E-4
1.0E-17                  377                      1.2793651262551936E-4
1.0E-17                  378                      1.2776085052234728E-4
1.0E-17                  379                      1.2758558311609208E-4
1.0E-17                  380                      1.2741071040675401E-4
1.0E-17                  381                      1.2723623239433302E-4
1.0E-17                  382                      1.2706214907882906E-4
1.0E-17                  383                      1.26888460460242E-4
1.0E-17                  384                      1.2671516653857176E-4
1.0E-17                  385                      1.2654226731381865E-4
1.0E-17                  386                      1.2636976278598244E-4
1.0E-17                  387                      1.2619765295506327E-4
1.0E-17                  388                      1.2602593782106125E-4
1.0E-17                  389                      1.258546173839759E-4
1.0E-17                  390                      1.2568369164380787E-4
1.0E-17                  391                      1.2551316060055667E-4
1.0E-17                  392                      1.2534302425422236E-4
1.0E-17                  393                      1.251732826048052E-4
1.0E-17                  394                      1.2500393565230492E-4
1.0E-17                  395                      1.2483498339672174E-4
1.0E-17                  396                      1.2466642583805544E-4
1.0E-17                  397                      1.2449826297630605E-4
1.0E-17                  398                      1.2433049481147394E-4
1.0E-17                  399                      1.2416312134355862E-4
1.0E-17                  400                      1.2399614257256034E-4
1.0E-17                  401                      1.238295584984789E-4
1.0E-17                  402                      1.2366336912131463E-4
1.0E-17                  403                      1.2349757444106725E-4
1.0E-17                  404                      1.2333217445773692E-4
1.0E-17                  405                      1.2316716917132366E-4
1.0E-17                  406                      1.2300255858182726E-4
1.0E-17                  407                      1.2283834268924778E-4
1.0E-17                  408                      1.2267452149358535E-4
1.0E-17                  409                      1.225103195921364E-4
1.0E-17                  410                      1.2234526666299314E-4
1.0E-17                  411                      1.2218051256419635E-4
1.0E-17                  412                      1.2201605729574582E-4
1.0E-17                  413                      1.2185190085764183E-4