% Model:              NP_reactive_flow_Different_injection_TCE_in_Low_Permeable.mph
% Version:            COMSOL 5.2.0.166
% Date:               Jun 15 2020, 10:14
% Table:              tce_retention_mass_0.02 - tce_outflow_mass_Inte (tce_outflow_Inte)
% Q_inject_design        t (s)                    tce_retention_mass (mol/m)
0.02                     0                        2.3439428970582513E-4
0.02                     1                        2.3439428975809525E-4
0.02                     2                        2.343942894797005E-4
0.02                     3                        2.3439428772604836E-4
0.02                     4                        2.3439429465488317E-4
0.02                     5                        2.3439431149400598E-4
0.02                     6                        2.3439430816911302E-4
0.02                     7                        2.343942148035751E-4
0.02                     8                        2.3439393180756953E-4
0.02                     9                        2.3439334114635203E-4
0.02                     10                       2.3439229879119484E-4
0.02                     11                       2.3439068226503273E-4
0.02                     12                       2.3438840184159638E-4
0.02                     13                       2.3438535093842455E-4
0.02                     14                       2.343814406246795E-4
0.02                     15                       2.343765927183623E-4
0.02                     16                       2.343707443159286E-4
0.02                     17                       2.3436384400290356E-4
0.02                     18                       2.3435584908408657E-4
0.02                     19                       2.343467262299867E-4
0.02                     20                       2.3433644499764076E-4
0.02                     21                       2.3432498888656172E-4
0.02                     22                       2.343123557181003E-4
0.02                     23                       2.3429853648901817E-4
0.02                     24                       2.3428353369620792E-4
0.02                     25                       2.3426734041988103E-4
0.02                     26                       2.3424996068235955E-4
0.02                     27                       2.3423140251072058E-4
0.02                     28                       2.342116626921697E-4
0.02                     29                       2.3419076365215448E-4
0.02                     30                       2.3416869800348057E-4
0.02                     31                       2.3414549008777733E-4
0.02                     32                       2.3412113945616157E-4
0.02                     33                       2.3409566407791421E-4
0.02                     34                       2.3406907367257403E-4
0.02                     35                       2.340413770949249E-4
0.02                     36                       2.3401259440119165E-4
0.02                     37                       2.3398272521038346E-4
0.02                     38                       2.339517985553484E-4
0.02                     39                       2.3391980600441655E-4
0.02                     40                       2.3388678357250554E-4
0.02                     41                       2.33852716665474E-4
0.02                     42                       2.338176747072266E-4
0.02                     43                       2.3378163273675323E-4
0.02                     44                       2.3374459049634182E-4
0.02                     45                       2.3370654798599222E-4
0.02                     46                       2.3366755783822392E-4
0.02                     47                       2.3362761993547205E-4
0.02                     48                       2.335867133277335E-4
0.02                     49                       2.3354483801500846E-4
0.02                     50                       2.3350202838198715E-4
0.02                     51                       2.3345834553727138E-4
0.02                     52                       2.334137372190575E-4
0.02                     53                       2.3336820342734492E-4
0.02                     54                       2.3332174540987216E-4
0.02                     55                       2.332744714589481E-4
0.02                     56                       2.3322631341426555E-4
0.02                     57                       2.3317727127582404E-4
0.02                     58                       2.3312734504362417E-4
0.02                     59                       2.330766006154302E-4
0.02                     60                       2.33025034392248E-4
0.02                     61                       2.3297262233787748E-4
0.02                     62                       2.3291936445231828E-4
0.02                     63                       2.3286529024872231E-4
0.02                     64                       2.3281044644480125E-4
0.02                     65                       2.327547917832592E-4
0.02                     66                       2.3269832626409594E-4
0.02                     67                       2.326410521918033E-4
0.02                     68                       2.3258305084656572E-4
0.02                     69                       2.3252427049415023E-4
0.02                     70                       2.3246471113455677E-4
0.02                     71                       2.3240437276778503E-4
0.02                     72                       2.3234330696034506E-4
0.02                     73                       2.3228150834098645E-4
0.02                     74                       2.3221895972612942E-4
0.02                     75                       2.3215566111577373E-4
0.02                     76                       2.3209163615941765E-4
0.02                     77                       2.320269181646403E-4
0.02                     78                       2.319614766649635E-4
0.02                     79                       2.3189531166038766E-4
0.02                     80                       2.3182842594276357E-4
0.02                     81                       2.3176087990552118E-4
0.02                     82                       2.3169263465597602E-4
0.02                     83                       2.3162369019412958E-4
0.02                     84                       2.3155404651998136E-4
0.02                     85                       2.3148374468894348E-4
0.02                     86                       2.3141277849754704E-4
0.02                     87                       2.313411354917797E-4
0.02                     88                       2.312688156716411E-4
0.02                     89                       2.3119583860379398E-4
0.02                     90                       2.3112222875949336E-4
0.02                     91                       2.3104796287215344E-4
0.02                     92                       2.3097304094177375E-4
0.02                     93                       2.3089746602726954E-4
0.02                     94                       2.30821285008818E-4
0.02                     95                       2.3074446732338484E-4
0.02                     96                       2.306670129709707E-4
0.02                     97                       2.3058892195157451E-4
0.02                     98                       2.3051022858212807E-4
0.02                     99                       2.30430926149137E-4
0.02                     100                      2.3035100521652543E-4
0.02                     101                      2.3027046578429376E-4
0.02                     102                      2.30189324818255E-4
0.02                     103                      2.3010760110708702E-4
0.02                     104                      2.3002527600534344E-4
0.02                     105                      2.2994234951302384E-4
0.02                     106                      2.2985882720124177E-4
0.02                     107                      2.2977477420362658E-4
0.02                     108                      2.2969014750651932E-4
0.02                     109                      2.2960494710992072E-4
0.02                     110                      2.2951917301382996E-4
0.02                     111                      2.2943282521824775E-4
0.02                     112                      2.2934590372317403E-4
0.02                     113                      2.2925840852860806E-4
0.02                     114                      2.291703396345507E-4
0.02                     115                      2.290817317268705E-4
0.02                     116                      2.2899260729747657E-4
0.02                     117                      2.2890292661930978E-4
0.02                     118                      2.2881268969236952E-4
0.02                     119                      2.287218965166563E-4
0.02                     120                      2.2863054709216997E-4
0.02                     121                      2.2853864141891042E-4
0.02                     122                      2.2844617949687766E-4
0.02                     123                      2.283532323114968E-4
0.02                     124                      2.2825978867328046E-4
0.02                     125                      2.2816581471921357E-4
0.02                     126                      2.280713104492957E-4
0.02                     127                      2.279762758635271E-4
0.02                     128                      2.2788071096190748E-4
0.02                     129                      2.2778461574443696E-4
0.02                     130                      2.276879902111157E-4
0.02                     131                      2.2759092308550594E-4
0.02                     132                      2.2749336221678724E-4
0.02                     133                      2.2739529487710304E-4
0.02                     134                      2.2729672106645382E-4
0.02                     135                      2.271976407848387E-4
0.02                     136                      2.270980540322584E-4
0.02                     137                      2.2699796080871262E-4
0.02                     138                      2.268973675095681E-4
0.02                     139                      2.26796362272669E-4
0.02                     140                      2.2669487316302398E-4
0.02                     141                      2.2659290018063225E-4
0.02                     142                      2.2649044332549392E-4
0.02                     143                      2.263875025976094E-4
0.02                     144                      2.2628407799697836E-4
0.02                     145                      2.2618016952360078E-4
0.02                     146                      2.2607580204011535E-4
0.02                     147                      2.2597102743540897E-4
0.02                     148                      2.2586579068061512E-4
0.02                     149                      2.257600917757337E-4
0.02                     150                      2.2565393072076527E-4
0.02                     151                      2.2554730751570928E-4
0.02                     152                      2.2544022216056534E-4
0.02                     153                      2.2533267465533463E-4
0.02                     154                      2.2522470872984654E-4
0.02                     155                      2.2511634117902864E-4
0.02                     156                      2.2500753280081193E-4
0.02                     157                      2.248982835951967E-4
0.02                     158                      2.24788593562183E-4
0.02                     159                      2.2467846270177036E-4
0.02                     160                      2.2456789101395934E-4
0.02                     161                      2.244568784987496E-4
0.02                     162                      2.2434548944850802E-4
0.02                     163                      2.2423370452545285E-4
0.02                     164                      2.2412150019197682E-4
0.02                     165                      2.24008876448079E-4
0.02                     166                      2.2389583329376016E-4
0.02                     167                      2.237823707290201E-4
0.02                     168                      2.2366848875385821E-4
0.02                     169                      2.2355418736827546E-4
0.02                     170                      2.2343955427658275E-4
0.02                     171                      2.23324530617893E-4
0.02                     172                      2.2320910948706127E-4
0.02                     173                      2.2309329088408727E-4
0.02                     174                      2.2297707480897132E-4
0.02                     175                      2.2286046126171317E-4
0.02                     176                      2.2274345024231304E-4
0.02                     177                      2.2262605344746322E-4
0.02                     178                      2.2250835038026615E-4
0.02                     179                      2.2239027258497498E-4
0.02                     180                      2.2227182006158912E-4
0.02                     181                      2.2215299281010896E-4
0.02                     182                      2.2203379083053483E-4
0.02                     183                      2.2191421412286584E-4
0.02                     184                      2.2179426268710274E-4
0.02                     185                      2.216739693672338E-4
0.02                     186                      2.2155338052939633E-4
0.02                     187                      2.2143244062511883E-4
0.02                     188                      2.2131114965440196E-4
0.02                     189                      2.2118950761724538E-4
0.02                     190                      2.2106751451364908E-4
0.02                     191                      2.2094517034361276E-4
0.02                     192                      2.208224751071371E-4
0.02                     193                      2.2069948533626305E-4
0.02                     194                      2.2057620921705234E-4
0.02                     195                      2.2045260653994004E-4
0.02                     196                      2.2032867730492622E-4
0.02                     197                      2.2020442151201062E-4
0.02                     198                      2.2007983916119404E-4
0.02                     199                      2.1995493025247562E-4
0.02                     200                      2.198296947858555E-4
0.02                     201                      2.1970421490593537E-4
0.02                     202                      2.1957845591900898E-4
0.02                     203                      2.1945239549523988E-4
0.02                     204                      2.193260336346279E-4
0.02                     205                      2.1919937033717323E-4
0.02                     206                      2.190724056028757E-4
0.02                     207                      2.1894513943173554E-4
0.02                     208                      2.1881757182375236E-4
0.02                     209                      2.1868981133518672E-4
0.02                     210                      2.1856177712914298E-4
0.02                     211                      2.1843346686149898E-4
0.02                     212                      2.183048805322554E-4
0.02                     213                      2.1817601814141214E-4
0.02                     214                      2.1804687968896903E-4
0.02                     215                      2.1791746517492569E-4
0.02                     216                      2.177877934691359E-4
0.02                     217                      2.1765794228365936E-4
0.02                     218                      2.1752784023342105E-4
0.02                     219                      2.1739748731842173E-4
0.02                     220                      2.1726688353866064E-4
0.02                     221                      2.171360288941383E-4
0.02                     222                      2.1700492338485444E-4
0.02                     223                      2.16873567010809E-4
0.02                     224                      2.167419999223832E-4
0.02                     225                      2.1661025953805042E-4
0.02                     226                      2.164782928466853E-4
0.02                     227                      2.1634609984828756E-4
0.02                     228                      2.1621368054285708E-4
0.02                     229                      2.1608103493039462E-4
0.02                     230                      2.1594816301089917E-4
0.02                     231                      2.158150647843715E-4
0.02                     232                      2.1568180047861157E-4
0.02                     233                      2.1554836712793323E-4
0.02                     234                      2.1541473094403065E-4
0.02                     235                      2.152808919269036E-4
0.02                     236                      2.1514685007655154E-4
0.02                     237                      2.150126053929756E-4
0.02                     238                      2.1487815787617524E-4
0.02                     239                      2.1474350752614992E-4
0.02                     240                      2.1460873224201743E-4
0.02                     241                      2.144737909790492E-4
0.02                     242                      2.143386688800796E-4
0.02                     243                      2.1420336594510893E-4
0.02                     244                      2.1406788217413688E-4
0.02                     245                      2.1393221756716327E-4
0.02                     246                      2.137963721241883E-4
0.02                     247                      2.1366034853939674E-4
0.02                     248                      2.1352423089480662E-4
0.02                     249                      2.133879526184232E-4
0.02                     250                      2.1325151371024702E-4
0.02                     251                      2.1311491417027806E-4
0.02                     252                      2.1297815399851604E-4
0.02                     253                      2.1284123319496116E-4
0.02                     254                      2.1270415175961331E-4
0.02                     255                      2.1256692763898282E-4
0.02                     256                      2.1242960931749404E-4
0.02                     257                      2.1229214854946894E-4
0.02                     258                      2.1215454533490713E-4
0.02                     259                      2.1201679967380882E-4
0.02                     260                      2.1187891156617368E-4
0.02                     261                      2.1174088101200229E-4
0.02                     262                      2.1160270801129407E-4
0.02                     263                      2.114644227979555E-4
0.02                     264                      2.113260427111281E-4
0.02                     265                      2.1118753621560826E-4
0.02                     266                      2.1104890331139633E-4
0.02                     267                      2.1091014399849154E-4
0.02                     268                      2.107712582768943E-4
0.02                     269                      2.1063224614660482E-4
0.02                     270                      2.1049310760762238E-4
0.02                     271                      2.1035388183210358E-4
0.02                     272                      2.1021456060129048E-4
0.02                     273                      2.1007512681227666E-4
0.02                     274                      2.0993558046506164E-4
0.02                     275                      2.0979592155964563E-4
0.02                     276                      2.096561500960285E-4
0.02                     277                      2.0951626607421014E-4
0.02                     278                      2.0937626949419074E-4
0.02                     279                      2.0923620499845166E-4
0.02                     280                      2.0909604500796676E-4
0.02                     281                      2.0895578415794242E-4
0.02                     282                      2.0881542244837934E-4
0.02                     283                      2.0867495987927687E-4
0.02                     284                      2.0853439645063542E-4
0.02                     285                      2.08393732162455E-4
0.02                     286                      2.0825297051006839E-4
0.02                     287                      2.0811214776900319E-4
0.02                     288                      2.0797123381270088E-4
0.02                     289                      2.0783022864116082E-4
0.02                     290                      2.076891322543835E-4
0.02                     291                      2.075479446523687E-4
0.02                     292                      2.0740666583511657E-4
0.02                     293                      2.0726529580262717E-4
0.02                     294                      2.0712384405676212E-4
0.02                     295                      2.0698232793779777E-4
0.02                     296                      2.068407283400319E-4
0.02                     297                      2.0669904526346528E-4
0.02                     298                      2.0655727870809784E-4
0.02                     299                      2.0641542867392925E-4
0.02                     300                      2.0627349516095988E-4
0.02                     301                      2.061314781691898E-4
0.02                     302                      2.0598938936883325E-4
0.02                     303                      2.058472322078196E-4
0.02                     304                      2.057049970246072E-4
0.02                     305                      2.0556268381919664E-4
0.02                     306                      2.0542029259158756E-4
0.02                     307                      2.0527782334177987E-4
0.02                     308                      2.0513527606977339E-4
0.02                     309                      2.049926635487547E-4
0.02                     310                      2.0484997983650653E-4
0.02                     311                      2.0470722230739378E-4
0.02                     312                      2.0456439096141603E-4
0.02                     313                      2.0442148579857323E-4
0.02                     314                      2.0427850752952558E-4
0.02                     315                      2.0413546480770227E-4
0.02                     316                      2.039923511926061E-4
0.02                     317                      2.0384916668423679E-4
0.02                     318                      2.0370591128259413E-4
0.02                     319                      2.035625849876787E-4
0.02                     320                      2.0341919325706192E-4
0.02                     321                      2.0327573289444099E-4
0.02                     322                      2.0313220356459117E-4
0.02                     323                      2.0298860526751295E-4
0.02                     324                      2.0284493800320553E-4
0.02                     325                      2.0270120441502913E-4
0.02                     326                      2.025574036254547E-4
0.02                     327                      2.0241353501227973E-4
0.02                     328                      2.022695985755043E-4
0.02                     329                      2.02125594315128E-4
0.02                     330                      2.0198152329452393E-4
0.02                     331                      2.0183738555978826E-4
0.02                     332                      2.0169318058818776E-4
0.02                     333                      2.0154890853013165E-4
0.02                     334                      2.0140457029037154E-4
0.02                     335                      2.0126016531690554E-4
0.02                     336                      2.0111569360973318E-4
0.02                     337                      2.0097115535936986E-4
0.02                     338                      2.008265505668535E-4
0.02                     339                      2.0068187917086835E-4
0.02                     340                      2.0053714115328563E-4
0.02                     341                      2.003923365061993E-4
0.02                     342                      2.0024746523894329E-4
0.02                     343                      2.0010252732033534E-4
0.02                     344                      1.9995752275159734E-4
0.02                     345                      1.9981245146321675E-4
0.02                     346                      1.9966731351190385E-4
0.02                     347                      1.9952210917921303E-4
0.02                     348                      1.9937683880712117E-4
0.02                     349                      1.9923150219607367E-4
0.02                     350                      1.9908609870873884E-4
0.02                     351                      1.9894062768907147E-4
0.02                     352                      1.987950886314289E-4
0.02                     353                      1.9864948109629568E-4
0.02                     354                      1.9850380465002027E-4
0.02                     355                      1.9835805892875485E-4
0.02                     356                      1.982122438148225E-4
0.02                     357                      1.9806635909871902E-4
0.02                     358                      1.9792040460328767E-4
0.02                     359                      1.9777438018432145E-4
0.02                     360                      1.976282857478467E-4
0.02                     361                      1.9748212116226953E-4
0.02                     362                      1.9733588628218868E-4
0.02                     363                      1.97189581012568E-4
0.02                     364                      1.9704320525533849E-4
0.02                     365                      1.9689675889320843E-4
0.02                     366                      1.9675024149729093E-4
0.02                     367                      1.9660365314515558E-4
0.02                     368                      1.9645699376650424E-4
0.02                     369                      1.9631026314788287E-4
0.02                     370                      1.9616346140891464E-4
0.02                     371                      1.9601658840095464E-4
0.02                     372                      1.958696441395339E-4
0.02                     373                      1.9572262868470722E-4
0.02                     374                      1.9557554211655794E-4
0.02                     375                      1.9542838439175152E-4
0.02                     376                      1.9528115576864007E-4
0.02                     377                      1.951338561820434E-4
0.02                     378                      1.9498648573187477E-4
0.02                     379                      1.9483904459443522E-4
0.02                     380                      1.9469153266572038E-4
0.02                     381                      1.9454395024232809E-4
0.02                     382                      1.943962972122398E-4
0.02                     383                      1.9424857368898534E-4
0.02                     384                      1.9410077978888722E-4
0.02                     385                      1.9395291544329365E-4
0.02                     386                      1.938049809020705E-4
0.02                     387                      1.936569760570766E-4
0.02                     388                      1.9350890104444243E-4
0.02                     389                      1.9336075594691087E-4
0.02                     390                      1.932125407248033E-4
0.02                     391                      1.9306425563382515E-4
0.02                     392                      1.9291590055844367E-4
0.02                     393                      1.927674756889374E-4
0.02                     394                      1.9261898108768923E-4
0.02                     395                      1.9247041674178155E-4
0.02                     396                      1.923217829458156E-4
0.02                     397                      1.9217307956017493E-4
0.02                     398                      1.920243068645883E-4
0.02                     399                      1.9187546488828134E-4
0.02                     400                      1.9172655366212345E-4
0.02                     401                      1.9157757353100414E-4
0.02                     402                      1.9142852432225578E-4
0.02                     403                      1.912794064440816E-4
0.02                     404                      1.9113021986463306E-4
0.02                     405                      1.90980964684086E-4
0.02                     406                      1.9083164128475417E-4
0.02                     407                      1.906822494622344E-4
0.02                     408                      1.905327897921094E-4
0.02                     409                      1.9038326214197997E-4
0.02                     410                      1.902336667223092E-4
0.02                     411                      1.9008400394216705E-4
0.02                     412                      1.8993427356398164E-4