% Model:              NP_reactive_flow_Different_injection_TCE_in_Low_Permeable.mph
% Version:            COMSOL 5.2.0.166
% Date:               Jun 8 2020, 00:38
% Table:              tce_retention_mass_0.5 - Global Evaluation 14 (TimeInt)
% Q_inject_design        t (s)                    tce_retention_mass (mol/m)
0.5                      0                        2.3439428970555937E-4
0.5                      1                        2.3438142270032248E-4
0.5                      2                        2.3409304721401107E-4
0.5                      3                        2.335456865585255E-4
0.5                      4                        2.3288467990602844E-4
0.5                      5                        2.3215585425741242E-4
0.5                      6                        2.313736176781854E-4
0.5                      7                        2.305431501962898E-4
0.5                      8                        2.2966329931086465E-4
0.5                      9                        2.2871898626146E-4
0.5                      10                       2.2769516590568758E-4
0.5                      11                       2.266041153006468E-4
0.5                      12                       2.254735544515541E-4
0.5                      13                       2.2432494399959307E-4
0.5                      14                       2.231633524257932E-4
0.5                      15                       2.2199105077187105E-4
0.5                      16                       2.2080731796534397E-4
0.5                      17                       2.19613056525143E-4
0.5                      18                       2.1840500610931934E-4
0.5                      19                       2.1718897084492018E-4
0.5                      20                       2.159754655436273E-4
0.5                      21                       2.1477421641591003E-4
0.5                      22                       2.1360246700638996E-4
0.5                      23                       2.1247467858589113E-4
0.5                      24                       2.113929274301345E-4
0.5                      25                       2.1035576925189996E-4
0.5                      26                       2.0936139396802937E-4
0.5                      27                       2.0840658317260768E-4
0.5                      28                       2.0748653234534272E-4
0.5                      29                       2.0659684445808554E-4
0.5                      30                       2.0573440854030535E-4
0.5                      31                       2.0489684349569824E-4
0.5                      32                       2.0408165244225091E-4
0.5                      33                       2.0328736709442703E-4
0.5                      34                       2.02512086368558E-4
0.5                      35                       2.0175394948832742E-4
0.5                      36                       2.010120556452235E-4
0.5                      37                       2.0028543895774005E-4
0.5                      38                       1.9957299362449382E-4
0.5                      39                       1.9887271329563903E-4
0.5                      40                       1.9818500515161413E-4
0.5                      41                       1.975092419819585E-4
0.5                      42                       1.96844000328631E-4
0.5                      43                       1.9619011450075453E-4
0.5                      44                       1.955460467966469E-4
0.5                      45                       1.9491111212124925E-4
0.5                      46                       1.9428601141384188E-4
0.5                      47                       1.936689454519763E-4
0.5                      48                       1.93060387615522E-4
0.5                      49                       1.9246022881289E-4
0.5                      50                       1.918662098510891E-4
0.5                      51                       1.9127946732232353E-4
0.5                      52                       1.907000012265938E-4
0.5                      53                       1.9012781156390007E-4
0.5                      54                       1.895628983342411E-4
0.5                      55                       1.8900357038307604E-4
0.5                      56                       1.8845005775007656E-4
0.5                      57                       1.8790301617378275E-4
0.5                      58                       1.8736244565419543E-4
0.5                      59                       1.868283461913133E-4
0.5                      60                       1.8630020678899107E-4
0.5                      61                       1.8577625704851682E-4
0.5                      62                       1.852579696588882E-4
0.5                      63                       1.8474534462010493E-4
0.5                      64                       1.842383819321676E-4
0.5                      65                       1.8373708159507535E-4
0.5                      66                       1.8323985463451704E-4
0.5                      67                       1.827472008024019E-4
0.5                      68                       1.8225953839541768E-4
0.5                      69                       1.8177686741356454E-4
0.5                      70                       1.8129918785684258E-4
0.5                      71                       1.808255581084051E-4
0.5                      72                       1.8035401583136012E-4
0.5                      73                       1.7988637579045708E-4
0.5                      74                       1.7942263798569665E-4
0.5                      75                       1.7896280241707816E-4
0.5                      76                       1.785068690846017E-4
0.5                      77                       1.7805483798826724E-4
0.5                      78                       1.7760670912807513E-4
0.5                      79                       1.771624825040253E-4
0.5                      80                       1.7672215811611748E-4
0.5                      81                       1.762857359643519E-4
0.5                      82                       1.758521617339487E-4
0.5                      83                       1.754204137183868E-4
0.5                      84                       1.749920741167223E-4
0.5                      85                       1.745671429289557E-4
0.5                      86                       1.7414562015508652E-4
0.5                      87                       1.737275057951149E-4
0.5                      88                       1.733127998490412E-4
0.5                      89                       1.729015023168648E-4
0.5                      90                       1.7249361319858592E-4
0.5                      91                       1.7208913249420481E-4
0.5                      92                       1.716880602037215E-4
0.5                      93                       1.7128893848855325E-4
0.5                      94                       1.7089107410475613E-4
0.5                      95                       1.7049605571324997E-4
0.5                      96                       1.7010388331403493E-4
0.5                      97                       1.6971455690711117E-4
0.5                      98                       1.6932807649247837E-4
0.5                      99                       1.689444420701371E-4
0.5                      100                      1.6856365364008657E-4
0.5                      101                      1.6818571120232788E-4
0.5                      102                      1.6781061475685985E-4
0.5                      103                      1.674383643036831E-4
0.5                      104                      1.67066666442285E-4
0.5                      105                      1.6669523281390746E-4
0.5                      106                      1.6632589451972862E-4
0.5                      107                      1.6595865155974898E-4
0.5                      108                      1.6559350393396813E-4
0.5                      109                      1.6523045164238632E-4
0.5                      110                      1.6486949468500362E-4
0.5                      111                      1.6451063306181918E-4
0.5                      112                      1.6415386677283447E-4
0.5                      113                      1.6379919581804823E-4
0.5                      114                      1.6344662019746086E-4
0.5                      115                      1.6309613991107277E-4
0.5                      116                      1.627477549588833E-4
0.5                      117                      1.6240146534089294E-4
0.5                      118                      1.6205727105710163E-4
0.5                      119                      1.6171517210750898E-4
0.5                      120                      1.6137516849211542E-4
0.5                      121                      1.6103726021092084E-4
0.5                      122                      1.6070144726392492E-4
0.5                      123                      1.603677296511282E-4
0.5                      124                      1.6003610737253034E-4
0.5                      125                      1.5970658042813133E-4
0.5                      126                      1.5937650872322495E-4
0.5                      127                      1.590470529652006E-4
0.5                      128                      1.587193524018885E-4
0.5                      129                      1.583934070332889E-4
0.5                      130                      1.580692168594014E-4
0.5                      131                      1.577467818802259E-4
0.5                      132                      1.5742610209576273E-4
0.5                      133                      1.5710717750601181E-4
0.5                      134                      1.5679000811097323E-4
0.5                      135                      1.5647459391064672E-4
0.5                      136                      1.5616093490503256E-4
0.5                      137                      1.558490310941307E-4
0.5                      138                      1.555388824779407E-4
0.5                      139                      1.552304890564631E-4
0.5                      140                      1.5492385082969785E-4
0.5                      141                      1.5461896779764446E-4
0.5                      142                      1.5431583996030346E-4
0.5                      143                      1.540144673176748E-4
0.5                      144                      1.5371484986975844E-4
0.5                      145                      1.53416987616554E-4
0.5                      146                      1.53120880558062E-4
0.5                      147                      1.5282652869428215E-4
0.5                      148                      1.5253019146714862E-4
0.5                      149                      1.522345602433712E-4
0.5                      150                      1.5194029374588955E-4
0.5                      151                      1.5164739197470346E-4
0.5                      152                      1.513558549298127E-4
0.5                      153                      1.510656826112179E-4
0.5                      154                      1.5077687501891863E-4
0.5                      155                      1.504894321529148E-4
0.5                      156                      1.5020335401320673E-4
0.5                      157                      1.4991864059979456E-4
0.5                      158                      1.4963529191267758E-4
0.5                      159                      1.4935330795185615E-4
0.5                      160                      1.490726887173308E-4
0.5                      161                      1.4879343420910065E-4
0.5                      162                      1.4851554442716624E-4
0.5                      163                      1.4823901937152764E-4
0.5                      164                      1.4796385904218426E-4
0.5                      165                      1.476900634391368E-4
0.5                      166                      1.474176325623849E-4
0.5                      167                      1.471465664119286E-4
0.5                      168                      1.4687686498776777E-4
0.5                      169                      1.466085282899029E-4
0.5                      170                      1.4633875773368166E-4
0.5                      171                      1.4607010676504E-4
0.5                      172                      1.45802575499731E-4
0.5                      173                      1.4553616393775406E-4
0.5                      174                      1.452708720791098E-4
0.5                      175                      1.4500669992379778E-4
0.5                      176                      1.4474364747181837E-4
0.5                      177                      1.444817147231712E-4
0.5                      178                      1.442209016778565E-4
0.5                      179                      1.439612083358743E-4
0.5                      180                      1.4370263469722428E-4
0.5                      181                      1.4344518076190693E-4
0.5                      182                      1.4318884652992159E-4
0.5                      183                      1.429336320012691E-4
0.5                      184                      1.4267953717594893E-4
0.5                      185                      1.424265620539611E-4
0.5                      186                      1.4217470663530565E-4
0.5                      187                      1.419239709199826E-4
0.5                      188                      1.4167435490799213E-4
0.5                      189                      1.414258585993338E-4
0.5                      190                      1.411784819940079E-4
0.5                      191                      1.4093182757840802E-4
0.5                      192                      1.4068399936777038E-4
0.5                      193                      1.404370584301894E-4
0.5                      194                      1.4019100476566558E-4
0.5                      195                      1.3994583837419856E-4
0.5                      196                      1.3970155925578878E-4
0.5                      197                      1.3945816741043569E-4
0.5                      198                      1.3921566283813967E-4
0.5                      199                      1.389740455389008E-4
0.5                      200                      1.3873331551271875E-4
0.5                      201                      1.3849347275959344E-4
0.5                      202                      1.3825451727952535E-4
0.5                      203                      1.380164490725141E-4
0.5                      204                      1.3777926813855987E-4
0.5                      205                      1.3754297447766248E-4
0.5                      206                      1.3730756808982237E-4
0.5                      207                      1.370730489750389E-4
0.5                      208                      1.3683941713331263E-4
0.5                      209                      1.3660667256464295E-4
0.5                      210                      1.3637481526903065E-4
0.5                      211                      1.3614384524647516E-4
0.5                      212                      1.359137624969765E-4
0.5                      213                      1.356840526406534E-4
0.5                      214                      1.3545399260364016E-4
0.5                      215                      1.3522467053446642E-4
0.5                      216                      1.3499608643313213E-4
0.5                      217                      1.347682402996368E-4
0.5                      218                      1.3454113213398101E-4
0.5                      219                      1.343147619361644E-4
0.5                      220                      1.3408912970618752E-4
0.5                      221                      1.338642354440496E-4
0.5                      222                      1.33640079149751E-4
0.5                      223                      1.334166608232918E-4
0.5                      224                      1.33193980464672E-4
0.5                      225                      1.3297203807389126E-4
0.5                      226                      1.3275083365095022E-4
0.5                      227                      1.3253036719584833E-4
0.5                      228                      1.3231063870858554E-4
0.5                      229                      1.3209164818916234E-4
0.5                      230                      1.3187339563757851E-4
0.5                      231                      1.316558810538339E-4
0.5                      232                      1.3143910443792837E-4
0.5                      233                      1.3122306578986246E-4
0.5                      234                      1.3100776510963598E-4
0.5                      235                      1.3079238450119368E-4
0.5                      236                      1.3057669132870915E-4
0.5                      237                      1.3036157896485155E-4
0.5                      238                      1.3014704740962026E-4
0.5                      239                      1.2993309666301555E-4
0.5                      240                      1.2971972672503728E-4
0.5                      241                      1.2950693759568576E-4
0.5                      242                      1.292947292749606E-4
0.5                      243                      1.2908310176286194E-4
0.5                      244                      1.2887205505938992E-4
0.5                      245                      1.2866158916454437E-4
0.5                      246                      1.284517040783253E-4
0.5                      247                      1.2824239980073284E-4
0.5                      248                      1.280336763317669E-4
0.5                      249                      1.2782553367142728E-4
0.5                      250                      1.2761797181971458E-4
0.5                      251                      1.274109907766281E-4
0.5                      252                      1.2720459054216824E-4
0.5                      253                      1.2699877111633484E-4
0.5                      254                      1.2679353249912803E-4
0.5                      255                      1.2658887469054774E-4
0.5                      256                      1.2638479769059408E-4
0.5                      257                      1.2618130149926672E-4
0.5                      258                      1.2597838611656603E-4
0.5                      259                      1.2577605154249192E-4
0.5                      260                      1.255742977770442E-4
0.5                      261                      1.253731248202232E-4
0.5                      262                      1.2517253267202853E-4
0.5                      263                      1.2497252133246035E-4
0.5                      264                      1.247730908015189E-4
0.5                      265                      1.2457424107920376E-4
0.5                      266                      1.243759721655153E-4
0.5                      267                      1.2417828406045356E-4
0.5                      268                      1.23981176764018E-4
0.5                      269                      1.2378465027620907E-4
0.5                      270                      1.2358870459702672E-4
0.5                      271                      1.2339333972647082E-4
0.5                      272                      1.2319855566454151E-4
0.5                      273                      1.2300435241123872E-4
0.5                      274                      1.228107299665625E-4
0.5                      275                      1.226176883305128E-4
0.5                      276                      1.2242522750308956E-4
0.5                      277                      1.222333474842929E-4
0.5                      278                      1.2204204827412279E-4
0.5                      279                      1.2185010801116003E-4
0.5                      280                      1.2165833619704815E-4
0.5                      281                      1.2146707451349025E-4
0.5                      282                      1.2127632296048645E-4
0.5                      283                      1.2108608153803668E-4
0.5                      284                      1.2089635024614077E-4
0.5                      285                      1.2070712908479901E-4
0.5                      286                      1.2051841805401133E-4
0.5                      287                      1.2033021715377747E-4
0.5                      288                      1.2014252638409785E-4
0.5                      289                      1.1995534574497212E-4
0.5                      290                      1.1976867523640024E-4
0.5                      291                      1.1958251485838251E-4
0.5                      292                      1.1939686461091882E-4
0.5                      293                      1.1921172449400915E-4
0.5                      294                      1.1902709450765346E-4
0.5                      295                      1.18842974651852E-4
0.5                      296                      1.1865936492660418E-4
0.5                      297                      1.1847626533191072E-4
0.5                      298                      1.1829367586777098E-4
0.5                      299                      1.1811159653418562E-4
0.5                      300                      1.1793002733115397E-4
0.5                      301                      1.1774896825867647E-4
0.5                      302                      1.1756841931675285E-4
0.5                      303                      1.1738838050538344E-4
0.5                      304                      1.1720885182456777E-4
0.5                      305                      1.170298332743063E-4
0.5                      306                      1.1685132485459892E-4
0.5                      307                      1.166733265654454E-4
0.5                      308                      1.1649583840684596E-4
0.5                      309                      1.1631886037880049E-4
0.5                      310                      1.1614239248130909E-4
0.5                      311                      1.1596643471437167E-4
0.5                      312                      1.1579098707798841E-4
0.5                      313                      1.1561604957215896E-4
0.5                      314                      1.1544162219688357E-4
0.5                      315                      1.1526770495216231E-4
0.5                      316                      1.1509429783799498E-4
0.5                      317                      1.1492140085438161E-4
0.5                      318                      1.147490140013222E-4
0.5                      319                      1.1457713727881724E-4
0.5                      320                      1.1440577068686578E-4
0.5                      321                      1.1423491422546858E-4
0.5                      322                      1.1406435503518693E-4
0.5                      323                      1.1389205666719425E-4
0.5                      324                      1.1372015867364616E-4
0.5                      325                      1.1354866105454264E-4
0.5                      326                      1.1337756380988365E-4
0.5                      327                      1.1320686693966939E-4
0.5                      328                      1.1303657044389953E-4
0.5                      329                      1.1286667432257442E-4
0.5                      330                      1.1269717857569391E-4
0.5                      331                      1.1252808320325801E-4
0.5                      332                      1.1235938820526652E-4
0.5                      333                      1.1219109358171976E-4
0.5                      334                      1.1202319933261772E-4
0.5                      335                      1.118557054579599E-4
0.5                      336                      1.1168861195774707E-4
0.5                      337                      1.115219188319786E-4
0.5                      338                      1.113556260806548E-4
0.5                      339                      1.1118973370377553E-4
0.5                      340                      1.1102424170134085E-4
0.5                      341                      1.1085915007335084E-4
0.5                      342                      1.106944588198055E-4
0.5                      343                      1.1053016794070454E-4
0.5                      344                      1.1036627743604815E-4
0.5                      345                      1.1020278730583653E-4
0.5                      346                      1.100396975500696E-4
0.5                      347                      1.0987700816874697E-4
0.5                      348                      1.0971471916186907E-4
0.5                      349                      1.0955283052943579E-4
0.5                      350                      1.0939134227144701E-4
0.5                      351                      1.0923025438790309E-4
0.5                      352                      1.0906956687880346E-4
0.5                      353                      1.0890927974414846E-4
0.5                      354                      1.0874939298393826E-4
0.5                      355                      1.085899065981724E-4
0.5                      356                      1.0843082058685117E-4
0.5                      357                      1.0827213494997472E-4
0.5                      358                      1.0811384968754264E-4
0.5                      359                      1.0795596479955534E-4
0.5                      360                      1.0779848028601246E-4
0.5                      361                      1.0764139614691433E-4
0.5                      362                      1.0748471238226071E-4
0.5                      363                      1.0732842899205171E-4
0.5                      364                      1.071725459762873E-4
0.5                      365                      1.0701706333496743E-4
0.5                      366                      1.0686139856692354E-4
0.5                      367                      1.0670521285000463E-4
0.5                      368                      1.0654936138827292E-4
0.5                      369                      1.0639384418172895E-4
0.5                      370                      1.0623866123037233E-4
0.5                      371                      1.0608381253420311E-4
0.5                      372                      1.05929298093221E-4
0.5                      373                      1.0577511790742662E-4
0.5                      374                      1.0562127197681955E-4
0.5                      375                      1.0546776030139984E-4
0.5                      376                      1.0531458288116749E-4
0.5                      377                      1.0516173971612264E-4
0.5                      378                      1.0500923080626505E-4
0.5                      379                      1.0485705615159507E-4
0.5                      380                      1.0470521575211238E-4
0.5                      381                      1.045537096078169E-4
0.5                      382                      1.0440253771870904E-4
0.5                      383                      1.0425170008478856E-4
0.5                      384                      1.0410119670605543E-4
0.5                      385                      1.0395102758250973E-4
0.5                      386                      1.0380119271415149E-4
0.5                      387                      1.0365169210098044E-4
0.5                      388                      1.03502525742997E-4
0.5                      389                      1.0335369364020105E-4
0.5                      390                      1.0320519579259218E-4
0.5                      391                      1.0305703220017094E-4
0.5                      392                      1.0290920286293706E-4
0.5                      393                      1.0276170778089047E-4
0.5                      394                      1.0261454695403145E-4
0.5                      395                      1.024677203823598E-4
0.5                      396                      1.0232122806587546E-4
0.5                      397                      1.0217507000457853E-4
0.5                      398                      1.0202924619846905E-4
0.5                      399                      1.0188375664754684E-4
0.5                      400                      1.0173860135181204E-4
0.5                      401                      1.0159378031126485E-4
0.5                      402                      1.0144929352590482E-4
0.5                      403                      1.0130514099573243E-4
0.5                      404                      1.0116132272074717E-4
0.5                      405                      1.0101783870094943E-4
0.5                      406                      1.008746889363392E-4
0.5                      407                      1.0073187342691635E-4
0.5                      408                      1.0058939217268085E-4
0.5                      409                      1.004472451736327E-4
0.5                      410                      1.0030460714430495E-4
0.5                      411                      1.0016192265940311E-4
0.5                      412                      1.0001952012052985E-4
0.5                      413                      9.987739952768556E-5