% Model:              NP_reactive_flow_Different_injection_TCE_in_Low_Permeable.mph
% Version:            COMSOL 5.2.0.166
% Date:               Jun 8 2020, 00:39
% Table:              TCE_reacted 0.1 - tce_reacted_mass (tce_reacted_mass)
% Q_inject_design        t (s)                    The reacted TCE (mol/m)
0.1                      0                        1.5857102941609032E-6
0.1                      1                        1.5857103746964903E-6
0.1                      2                        1.5857091148274793E-6
0.1                      3                        1.5857158870502522E-6
0.1                      4                        1.585846692827423E-6
0.1                      5                        1.586289616043907E-6
0.1                      6                        1.5871848857805224E-6
0.1                      7                        1.5885754232124145E-6
0.1                      8                        1.5904449621945655E-6
0.1                      9                        1.5927461361844896E-6
0.1                      10                       1.5954215299360481E-6
0.1                      11                       1.5984319138761163E-6
0.1                      12                       1.6017384280582893E-6
0.1                      13                       1.6053074167948323E-6
0.1                      14                       1.6091111640665114E-6
0.1                      15                       1.6131273182442507E-6
0.1                      16                       1.617337883601044E-6
0.1                      17                       1.6217279040710314E-6
0.1                      18                       1.6262862747589877E-6
0.1                      19                       1.6310038490965317E-6
0.1                      20                       1.6358730693173713E-6
0.1                      21                       1.6408875134145288E-6
0.1                      22                       1.6460415029074298E-6
0.1                      23                       1.6513298954456354E-6
0.1                      24                       1.6567480034386389E-6
0.1                      25                       1.662289596721344E-6
0.1                      26                       1.6679535787794265E-6
0.1                      27                       1.6737353073250659E-6
0.1                      28                       1.6796322798449364E-6
0.1                      29                       1.685641139543031E-6
0.1                      30                       1.6917566884598136E-6
0.1                      31                       1.6979788184382435E-6
0.1                      32                       1.7043041015067945E-6
0.1                      33                       1.7107311866595615E-6
0.1                      34                       1.7172594735026492E-6
0.1                      35                       1.7238878752311543E-6
0.1                      36                       1.730616535333362E-6
0.1                      37                       1.7374452513877603E-6
0.1                      38                       1.7443740655218087E-6
0.1                      39                       1.7514028752265697E-6
0.1                      40                       1.7585314546392805E-6
0.1                      41                       1.765758912481585E-6
0.1                      42                       1.7730847132333169E-6
0.1                      43                       1.7805067467940797E-6
0.1                      44                       1.7880233555988089E-6
0.1                      45                       1.7956327065735845E-6
0.1                      46                       1.8033296511847703E-6
0.1                      47                       1.8111130085193685E-6
0.1                      48                       1.8189777901059968E-6
0.1                      49                       1.8269187273822186E-6
0.1                      50                       1.834933505147697E-6
0.1                      51                       1.8430147216340943E-6
0.1                      52                       1.8511593401167707E-6
0.1                      53                       1.8593632690455043E-6
0.1                      54                       1.867619009233944E-6
0.1                      55                       1.8759258530635594E-6
0.1                      56                       1.8842783692649414E-6
0.1                      57                       1.8926739795785373E-6
0.1                      58                       1.9011092304201776E-6
0.1                      59                       1.9095812996595324E-6
0.1                      60                       1.9180883636005613E-6
0.1                      61                       1.9266289355325075E-6
0.1                      62                       1.9352020432667023E-6
0.1                      63                       1.9438074574105537E-6
0.1                      64                       1.9524452958057297E-6
0.1                      65                       1.9611156703206867E-6
0.1                      66                       1.9698185241129476E-6
0.1                      67                       1.9785657685363467E-6
0.1                      68                       1.987337646820161E-6
0.1                      69                       1.9961387998371625E-6
0.1                      70                       2.0049683196238824E-6
0.1                      71                       2.0138295266956206E-6
0.1                      72                       2.0227216443983235E-6
0.1                      73                       2.0316481774802574E-6
0.1                      74                       2.0406094493859034E-6
0.1                      75                       2.049603623616257E-6
0.1                      76                       2.058629769639669E-6
0.1                      77                       2.0676878755614828E-6
0.1                      78                       2.076777825080246E-6
0.1                      79                       2.085899204645078E-6
0.1                      80                       2.0950515890262497E-6
0.1                      81                       2.104235186013719E-6
0.1                      82                       2.1134496859891004E-6
0.1                      83                       2.122694166152285E-6
0.1                      84                       2.13196786246364E-6
0.1                      85                       2.141270273159869E-6
0.1                      86                       2.150600828356883E-6
0.1                      87                       2.1599588799384474E-6
0.1                      88                       2.1693435839963123E-6
0.1                      89                       2.178754163419277E-6
0.1                      90                       2.1881897363410795E-6
0.1                      91                       2.197649282821843E-6
0.1                      92                       2.207131592626984E-6
0.1                      93                       2.216635087645766E-6
0.1                      94                       2.2261581316022292E-6
0.1                      95                       2.2356986503277404E-6
0.1                      96                       2.245254226928134E-6
0.1                      97                       2.254822709055279E-6
0.1                      98                       2.2644018458694434E-6
0.1                      99                       2.2739885927642946E-6
0.1                      100                      2.2835805391847907E-6
0.1                      101                      2.2931747881068396E-6
0.1                      102                      2.302768437638932E-6
0.1                      103                      2.312358418597225E-6
0.1                      104                      2.3219420689301085E-6
0.1                      105                      2.3315170898911507E-6
0.1                      106                      2.3410809196732754E-6
0.1                      107                      2.3506311130000183E-6
0.1                      108                      2.360165091173599E-6
0.1                      109                      2.3696788638361753E-6
0.1                      110                      2.379171582962843E-6
0.1                      111                      2.388641876087253E-6
0.1                      112                      2.398085661151654E-6
0.1                      113                      2.4075051588729764E-6
0.1                      114                      2.4168936822965194E-6
0.1                      115                      2.4262520521751792E-6
0.1                      116                      2.4355794053719133E-6
0.1                      117                      2.4448705604442476E-6
0.1                      118                      2.454128248259059E-6
0.1                      119                      2.463348015339867E-6
0.1                      120                      2.472530072427574E-6
0.1                      121                      2.4816743197361157E-6
0.1                      122                      2.4907776437285435E-6
0.1                      123                      2.4998416387562105E-6
0.1                      124                      2.5088642708211807E-6
0.1                      125                      2.5178454691337392E-6
0.1                      126                      2.5267851682682347E-6
0.1                      127                      2.535681225793361E-6
0.1                      128                      2.5445347101185167E-6
0.1                      129                      2.553345621243567E-6
0.1                      130                      2.5621139591683757E-6
0.1                      131                      2.570839393416073E-6
0.1                      132                      2.5795205899595313E-6
0.1                      133                      2.588158593903238E-6
0.1                      134                      2.596753405246644E-6
0.1                      135                      2.6053050239898575E-6
0.1                      136                      2.613813278957217E-6
0.1                      137                      2.622277275729303E-6
0.1                      138                      2.6306976917870006E-6
0.1                      139                      2.639074527130662E-6
0.1                      140                      2.6474077817600092E-6
0.1                      141                      2.655697602755226E-6
0.1                      142                      2.66394502175227E-6
0.1                      143                      2.6721492806012852E-6
0.1                      144                      2.6803103793028135E-6
0.1                      145                      2.688428317856638E-6
0.1                      146                      2.6965033942707216E-6
0.1                      147                      2.7045385926062845E-6
0.1                      148                      2.7125317789191008E-6
0.1                      149                      2.7204829532086555E-6
0.1                      150                      2.728392115475938E-6
0.1                      151                      2.7362595347772844E-6
0.1                      152                      2.7440895375454953E-6
0.1                      153                      2.7518791056488126E-6
0.1                      154                      2.759628239087995E-6
0.1                      155                      2.7673369378626296E-6
0.1                      156                      2.775005344827987E-6
0.1                      157                      2.7826384387352366E-6
0.1                      158                      2.790232824159873E-6
0.1                      159                      2.7977885011025124E-6
0.1                      160                      2.8053054695622947E-6
0.1                      161                      2.812783729539748E-6
0.1                      162                      2.820228490599166E-6
0.1                      163                      2.8276362796923646E-6
0.1                      164                      2.835007090094058E-6
0.1                      165                      2.8423409218043954E-6
0.1                      166                      2.8496377748234514E-6
0.1                      167                      2.8569060830562488E-6
0.1                      168                      2.864140589510728E-6
0.1                      169                      2.87134103357604E-6
0.1                      170                      2.87850741525207E-6
0.1                      171                      2.885639734539367E-6
0.1                      172                      2.8927379914376667E-6
0.1                      173                      2.8998021859466774E-6
0.1                      174                      2.906832318066779E-6
0.1                      175                      2.9138283877978895E-6
0.1                      176                      2.9207903951396707E-6
0.1                      177                      2.9277287790496347E-6
0.1                      178                      2.9346363294692086E-6
0.1                      179                      2.941511943127211E-6
0.1                      180                      2.948355620024286E-6
0.1                      181                      2.9551673601602775E-6
0.1                      182                      2.9619471635347248E-6
0.1                      183                      2.968695030148102E-6
0.1                      184                      2.9754109600001926E-6
0.1                      185                      2.98209495309143E-6
0.1                      186                      2.9887470094211503E-6
0.1                      187                      2.995380732588612E-6
0.1                      188                      3.0019881142931675E-6
0.1                      189                      3.0085665771673395E-6
0.1                      190                      3.015116121211209E-6
0.1                      191                      3.021636746424478E-6
0.1                      192                      3.0281284528071734E-6
0.1                      193                      3.034591240359729E-6
0.1                      194                      3.0410251090816164E-6
0.1                      195                      3.047430058973269E-6
0.1                      196                      3.0538060900345515E-6
0.1                      197                      3.060165431690239E-6
0.1                      198                      3.066502355824217E-6
0.1                      199                      3.072813337478395E-6
0.1                      200                      3.0790983766533833E-6
0.1                      201                      3.0853574733490194E-6
0.1                      202                      3.0915906275650186E-6
0.1                      203                      3.097797839301977E-6
0.1                      204                      3.1039791085595426E-6
0.1                      205                      3.1101344353376474E-6
0.1                      206                      3.116263819636332E-6
0.1                      207                      3.1223831569916505E-6
0.1                      208                      3.1284872917929367E-6
0.1                      209                      3.1345697630660738E-6
0.1                      210                      3.1406305708110347E-6
0.1                      211                      3.1466697150274805E-6
0.1                      212                      3.152687195715845E-6
0.1                      213                      3.1586830128757623E-6
0.1                      214                      3.164657166507395E-6
0.1                      215                      3.170609656610919E-6
0.1                      216                      3.1765404831860233E-6
0.1                      217                      3.1824496462325445E-6
0.1                      218                      3.1883371457512284E-6
0.1                      219                      3.194202981741411E-6
0.1                      220                      3.200047154203241E-6
0.1                      221                      3.2058696631368E-6
0.1                      222                      3.211670508542169E-6
0.1                      223                      3.217449690419064E-6
0.1                      224                      3.2232072087677284E-6
0.1                      225                      3.2289430635879863E-6
0.1                      226                      3.234657254880244E-6
0.1                      227                      3.240363316323508E-6
0.1                      228                      3.246060457897656E-6
0.1                      229                      3.2517382985605253E-6
0.1                      230                      3.2573968383125764E-6
0.1                      231                      3.2630360771534843E-6
0.1                      232                      3.2686560150837774E-6
0.1                      233                      3.274256652103266E-6
0.1                      234                      3.279837988211625E-6
0.1                      235                      3.285400023409071E-6
0.1                      236                      3.290942757695875E-6
0.1                      237                      3.2964661910716035E-6
0.1                      238                      3.3019703235363107E-6
0.1                      239                      3.3074551550904302E-6
0.1                      240                      3.312920685733366E-6
0.1                      241                      3.318366915465741E-6
0.1                      242                      3.323793844287081E-6
0.1                      243                      3.329201472197332E-6
0.1                      244                      3.33458979919686E-6
0.1                      245                      3.3399588252854207E-6
0.1                      246                      3.345308550463204E-6
0.1                      247                      3.3506507909838063E-6
0.1                      248                      3.355992214053294E-6
0.1                      249                      3.361317094421098E-6
0.1                      250                      3.36662543208734E-6
0.1                      251                      3.371917227051546E-6
0.1                      252                      3.3771924793144067E-6
0.1                      253                      3.382451188875448E-6
0.1                      254                      3.387693355734792E-6
0.1                      255                      3.3929189798923438E-6
0.1                      256                      3.398128061348537E-6
0.1                      257                      3.4033206001028563E-6
0.1                      258                      3.4084965961552887E-6
0.1                      259                      3.41365604950643E-6
0.1                      260                      3.418798960155549E-6
0.1                      261                      3.4239253281030516E-6
0.1                      262                      3.429035153348979E-6
0.1                      263                      3.4341284358929648E-6
0.1                      264                      3.4392051757351584E-6
0.1                      265                      3.4442653728760476E-6
0.1                      266                      3.449309027315104E-6
0.1                      267                      3.454342189026759E-6
0.1                      268                      3.4593757183743764E-6
0.1                      269                      3.464394821482358E-6
0.1                      270                      3.4693994983512195E-6
0.1                      271                      3.474389748980093E-6
0.1                      272                      3.479365573370009E-6
0.1                      273                      3.484326971520032E-6
0.1                      274                      3.4892739434307584E-6
0.1                      275                      3.4942064891019443E-6
0.1                      276                      3.4991246085336303E-6
0.1                      277                      3.504028301725925E-6
0.1                      278                      3.5089175686786112E-6
0.1                      279                      3.5137924093917028E-6
0.1                      280                      3.5186528238655113E-6
0.1                      281                      3.523498812099698E-6
0.1                      282                      3.528330374094236E-6
0.1                      283                      3.533147509849477E-6
0.1                      284                      3.537950219365232E-6
0.1                      285                      3.54273850264146E-6
0.1                      286                      3.547512359678188E-6
0.1                      287                      3.5522755539751683E-6
0.1                      288                      3.5570483269715004E-6
0.1                      289                      3.561809266100193E-6
0.1                      290                      3.5665583713616794E-6
0.1                      291                      3.571295642755811E-6
0.1                      292                      3.5760210802826417E-6
0.1                      293                      3.5807346839422937E-6
0.1                      294                      3.5854364537344686E-6
0.1                      295                      3.5901263896595054E-6
0.1                      296                      3.5948044917170246E-6
0.1                      297                      3.5994707599073243E-6
0.1                      298                      3.6041251942302283E-6
0.1                      299                      3.6087677946860754E-6
0.1                      300                      3.613398561274188E-6
0.1                      301                      3.6180174939953795E-6
0.1                      302                      3.622624592849121E-6
0.1                      303                      3.6272198578352635E-6
0.1                      304                      3.6318032889542815E-6
0.1                      305                      3.6363748862060257E-6
0.1                      306                      3.6409346495904556E-6
0.1                      307                      3.645482579107544E-6
0.1                      308                      3.650018674757169E-6
0.1                      309                      3.654542936539751E-6
0.1                      310                      3.659055364454937E-6
0.1                      311                      3.6635559585027273E-6
0.1                      312                      3.6680447186832304E-6
0.1                      313                      3.67252164499646E-6
0.1                      314                      3.676986737442199E-6
0.1                      315                      3.68143999602061E-6
0.1                      316                      3.685881420731815E-6
0.1                      317                      3.6903110115758006E-6
0.1                      318                      3.694728768552323E-6
0.1                      319                      3.6991346916615984E-6
0.1                      320                      3.7035287809034784E-6
0.1                      321                      3.707911036278098E-6
0.1                      322                      3.7122814577854172E-6
0.1                      323                      3.7166400454252864E-6
0.1                      324                      3.720986799198004E-6
0.1                      325                      3.7253217191033256E-6
0.1                      326                      3.729644805141238E-6
0.1                      327                      3.7339560573119448E-6
0.1                      328                      3.738281062568073E-6
0.1                      329                      3.7425994120171113E-6
0.1                      330                      3.7469073581085306E-6
0.1                      331                      3.751204900842765E-6
0.1                      332                      3.7554920402195296E-6
0.1                      333                      3.7597687762389194E-6
0.1                      334                      3.7640351089009345E-6
0.1                      335                      3.76829103820548E-6
0.1                      336                      3.772536564152637E-6
0.1                      337                      3.776771686742487E-6
0.1                      338                      3.7809964059749488E-6
0.1                      339                      3.785210721849968E-6
0.1                      340                      3.7894146343675852E-6
0.1                      341                      3.7936081435279226E-6
0.1                      342                      3.797791249330682E-6
0.1                      343                      3.8019639517761477E-6
0.1                      344                      3.806126250864347E-6
0.1                      345                      3.8102781465949414E-6
0.1                      346                      3.8144196389683236E-6
0.1                      347                      3.818550727984317E-6
0.1                      348                      3.8226714136425975E-6
0.1                      349                      3.826781695943828E-6
0.1                      350                      3.830881574887454E-6
0.1                      351                      3.834971050473826E-6
0.1                      352                      3.839050122702689E-6
0.1                      353                      3.843118791574393E-6
0.1                      354                      3.8471770570885195E-6
0.1                      355                      3.851224919245244E-6
0.1                      356                      3.855262378044743E-6
0.1                      357                      3.859289433486623E-6
0.1                      358                      3.863306085571426E-6
0.1                      359                      3.867312334298421E-6
0.1                      360                      3.871308179668366E-6
0.1                      361                      3.875293621680761E-6
0.1                      362                      3.879268660335848E-6
0.1                      363                      3.8832332956333576E-6
0.1                      364                      3.8871875275735734E-6
0.1                      365                      3.891131356156469E-6
0.1                      366                      3.8950647813820434E-6
0.1                      367                      3.898987803250067E-6
0.1                      368                      3.902921606365663E-6
0.1                      369                      3.906860767057349E-6
0.1                      370                      3.91079126442709E-6
0.1                      371                      3.914713098474899E-6
0.1                      372                      3.91862626920075E-6
0.1                      373                      3.922530776604601E-6
0.1                      374                      3.926426620686711E-6
0.1                      375                      3.9303138014467665E-6
0.1                      376                      3.934192318885067E-6
0.1                      377                      3.9380621730010295E-6
0.1                      378                      3.941923363795318E-6
0.1                      379                      3.9457758912677694E-6
0.1                      380                      3.949619755418249E-6
0.1                      381                      3.95345495624658E-6
0.1                      382                      3.957281493753169E-6
0.1                      383                      3.9610993679379755E-6
0.1                      384                      3.964908578800647E-6
0.1                      385                      3.968709126341523E-6
0.1                      386                      3.972501010560318E-6
0.1                      387                      3.976284231457181E-6
0.1                      388                      3.980058789032113E-6
0.1                      389                      3.983824683285168E-6
0.1                      390                      3.98758191421644E-6
0.1                      391                      3.991330481825726E-6
0.1                      392                      3.995070386112823E-6
0.1                      393                      3.9988016270783E-6
0.1                      394                      4.002524204721738E-6
0.1                      395                      4.006238119043365E-6
0.1                      396                      4.0099433700426955E-6
0.1                      397                      4.013639957720487E-6
0.1                      398                      4.017327882076198E-6
0.1                      399                      4.021007143109977E-6
0.1                      400                      4.024677740821757E-6
0.1                      401                      4.028339675211755E-6
0.1                      402                      4.031992946279726E-6
0.1                      403                      4.035637554025833E-6
0.1                      404                      4.039273498449914E-6
0.1                      405                      4.042900779552185E-6
0.1                      406                      4.046519397332403E-6
0.1                      407                      4.050129351790716E-6
0.1                      408                      4.05374430770348E-6
0.1                      409                      4.057380741287489E-6
0.1                      410                      4.06101060162483E-6
0.1                      411                      4.064633888715437E-6
0.1                      412                      4.068250602559228E-6
0.1                      413                      4.071860743156365E-6
0.1                      414                      4.075464310506442E-6