% Model:              NP_reactive_flow_Different_injection_TCE_in_Low_Permeable.mph
% Version:            COMSOL 5.2.0.166
% Date:               Jun 15 2020, 10:14
% Table:              TCE_reacted 0.02 - tce_reacted_mass (tce_reacted_mass)
% Q_inject_design        t (s)                    The reacted TCE (mol/m)
0.02                     0                        1.5857102941713948E-6
0.02                     1                        1.5857102784468058E-6
0.02                     2                        1.5857102976942643E-6
0.02                     3                        1.5857103693679972E-6
0.02                     4                        1.5857102224916655E-6
0.02                     5                        1.585709819430121E-6
0.02                     6                        1.5857098794892294E-6
0.02                     7                        1.585712067487286E-6
0.02                     8                        1.5857187460702643E-6
0.02                     9                        1.5857327061080405E-6
0.02                     10                       1.5857573415760814E-6
0.02                     11                       1.5857955307557624E-6
0.02                     12                       1.5858493757530506E-6
0.02                     13                       1.5859213693678713E-6
0.02                     14                       1.5860135850507665E-6
0.02                     15                       1.5861278392345454E-6
0.02                     16                       1.5862655867627564E-6
0.02                     17                       1.5864280104502685E-6
0.02                     18                       1.5866160856663013E-6
0.02                     19                       1.5868305661037854E-6
0.02                     20                       1.5870721237347217E-6
0.02                     21                       1.5873411160679923E-6
0.02                     22                       1.5876375736925905E-6
0.02                     23                       1.587961670331707E-6
0.02                     24                       1.5883133426740712E-6
0.02                     25                       1.5886926779857127E-6
0.02                     26                       1.5890996046579803E-6
0.02                     27                       1.589533838272515E-6
0.02                     28                       1.5899954926659263E-6
0.02                     29                       1.5904839362808005E-6
0.02                     30                       1.5909993771586286E-6
0.02                     31                       1.5915411638256708E-6
0.02                     32                       1.5921093083047841E-6
0.02                     33                       1.592703340906637E-6
0.02                     34                       1.5933230064774283E-6
0.02                     35                       1.5939680768853378E-6
0.02                     36                       1.5946380308852626E-6
0.02                     37                       1.5953328798725618E-6
0.02                     38                       1.596051873437339E-6
0.02                     39                       1.5967952298988172E-6
0.02                     40                       1.5975620212754695E-6
0.02                     41                       1.5983526236087541E-6
0.02                     42                       1.5991652551529112E-6
0.02                     43                       1.6000005565263952E-6
0.02                     44                       1.6008585343423118E-6
0.02                     45                       1.6017391886008235E-6
0.02                     46                       1.6026411703525569E-6
0.02                     47                       1.6035644826095917E-6
0.02                     48                       1.6045096623126271E-6
0.02                     49                       1.6054767094614998E-6
0.02                     50                       1.6064647446352216E-6
0.02                     51                       1.6074722049238116E-6
0.02                     52                       1.6085004269715783E-6
0.02                     53                       1.6095494107791184E-6
0.02                     54                       1.6106191245382717E-6
0.02                     55                       1.6117068076002956E-6
0.02                     56                       1.6128141975462185E-6
0.02                     57                       1.6139412943764727E-6
0.02                     58                       1.6150880980904631E-6
0.02                     59                       1.6162529353303303E-6
0.02                     60                       1.6174358974865241E-6
0.02                     61                       1.6186375949156547E-6
0.02                     62                       1.6198580276181297E-6
0.02                     63                       1.6210964494761074E-6
0.02                     64                       1.622351679426129E-6
0.02                     65                       1.623624760487579E-6
0.02                     66                       1.6249156926607014E-6
0.02                     67                       1.626224417982549E-6
0.02                     68                       1.6275488920879821E-6
0.02                     69                       1.6288904161999713E-6
0.02                     70                       1.6302489903185707E-6
0.02                     71                       1.6316246144441052E-6
0.02                     72                       1.633015999386255E-6
0.02                     73                       1.6344232794293612E-6
0.02                     74                       1.6358468841719438E-6
0.02                     75                       1.6372868136142741E-6
0.02                     76                       1.6387424806671397E-6
0.02                     77                       1.6402130584841426E-6
0.02                     78                       1.6416993033828754E-6
0.02                     79                       1.6432012153629596E-6
0.02                     80                       1.6447187256744345E-6
0.02                     81                       1.646250347104333E-6
0.02                     82                       1.6477970374019793E-6
0.02                     83                       1.6493587965658814E-6
0.02                     84                       1.6509356245965282E-6
0.02                     85                       1.6525265195683485E-6
0.02                     86                       1.6541316328723532E-6
0.02                     87                       1.6557512684386976E-6
0.02                     88                       1.6573854262677334E-6
0.02                     89                       1.6590336335161417E-6
0.02                     90                       1.6606952988163307E-6
0.02                     91                       1.6623709844237983E-6
0.02                     92                       1.6640606903390057E-6
0.02                     93                       1.6657643434069563E-6
0.02                     94                       1.6674808224852294E-6
0.02                     95                       1.6692108584911464E-6
0.02                     96                       1.6709544514240283E-6
0.02                     97                       1.672711601284959E-6
0.02                     98                       1.6744814962094658E-6
0.02                     99                       1.6762642950241126E-6
0.02                     100                      1.6780602209663682E-6
0.02                     101                      1.679869274035799E-6
0.02                     102                      1.6816910572566819E-6
0.02                     103                      1.6835251310012297E-6
0.02                     104                      1.6853719315455323E-6
0.02                     105                      1.6872314588900005E-6
0.02                     106                      1.6891035851646889E-6
0.02                     107                      1.6909868153997137E-6
0.02                     108                      1.692882136859912E-6
0.02                     109                      1.6947895495445502E-6
0.02                     110                      1.6967090534544432E-6
0.02                     111                      1.6986406485888846E-6
0.02                     112                      1.7005843349479294E-6
0.02                     113                      1.7025401125323374E-6
0.02                     114                      1.7045079813412115E-6
0.02                     115                      1.7064871590590858E-6
0.02                     116                      1.708477138396556E-6
0.02                     117                      1.7104788153695993E-6
0.02                     118                      1.712492189978842E-6
0.02                     119                      1.7145172622237653E-6
0.02                     120                      1.7165540321045348E-6
0.02                     121                      1.7186024996212595E-6
0.02                     122                      1.7206626647739098E-6
0.02                     123                      1.7227329433587297E-6
0.02                     124                      1.724813585095312E-6
0.02                     125                      1.7269053457144991E-6
0.02                     126                      1.729008225216701E-6
0.02                     127                      1.7311222236016967E-6
0.02                     128                      1.7332473408697605E-6
0.02                     129                      1.7353835770207552E-6
0.02                     130                      1.7375309320545445E-6
0.02                     131                      1.7396874589152823E-6
0.02                     132                      1.7418543020631173E-6
0.02                     133                      1.7440317408132576E-6
0.02                     134                      1.7462197751652152E-6
0.02                     135                      1.7484184051198575E-6
0.02                     136                      1.7506276306765086E-6
0.02                     137                      1.752847451835409E-6
0.02                     138                      1.7550777304325999E-6
0.02                     139                      1.7573165623567455E-6
0.02                     140                      1.7595655016754615E-6
0.02                     141                      1.7618245483895067E-6
0.02                     142                      1.7640937024988025E-6
0.02                     143                      1.7663729640029107E-6
0.02                     144                      1.7686623329021882E-6
0.02                     145                      1.7709618091966331E-6
0.02                     146                      1.773270862654222E-6
0.02                     147                      1.775588386669403E-6
0.02                     148                      1.7779155548125484E-6
0.02                     149                      1.7802523670837413E-6
0.02                     150                      1.7825988234824091E-6
0.02                     151                      1.7849549240091262E-6
0.02                     152                      1.7873206686642685E-6
0.02                     153                      1.7896960574466705E-6
0.02                     154                      1.7920801660292891E-6
0.02                     155                      1.7944726394139974E-6
0.02                     156                      1.7968743062240829E-6
0.02                     157                      1.799285166459249E-6
0.02                     158                      1.8017052201194671E-6
0.02                     159                      1.8041344672051963E-6
0.02                     160                      1.806572907715869E-6
0.02                     161                      1.8090205416518408E-6
0.02                     162                      1.811476016044536E-6
0.02                     163                      1.8139397378384145E-6
0.02                     164                      1.8164122023581663E-6
0.02                     165                      1.8188934096047127E-6
0.02                     166                      1.8213833595772948E-6
0.02                     167                      1.8238820522761007E-6
0.02                     168                      1.8263894877017588E-6
0.02                     169                      1.82890566585329E-6
0.02                     170                      1.8314287419153037E-6
0.02                     171                      1.8339599539965923E-6
0.02                     172                      1.8364994473433807E-6
0.02                     173                      1.839047221955967E-6
0.02                     174                      1.8416032778340295E-6
0.02                     175                      1.8441676149778086E-6
0.02                     176                      1.8467402333870892E-6
0.02                     177                      1.8493208864763942E-6
0.02                     178                      1.8519078981870177E-6
0.02                     179                      1.8545027116804444E-6
0.02                     180                      1.8571053269572756E-6
0.02                     181                      1.8597157440171284E-6
0.02                     182                      1.8623339628596538E-6
0.02                     183                      1.864959983485743E-6
0.02                     184                      1.8675938058946641E-6
0.02                     185                      1.8702347352742453E-6
0.02                     186                      1.8728817907521057E-6
0.02                     187                      1.8755361474526587E-6
0.02                     188                      1.8781978053752522E-6
0.02                     189                      1.8808667645202114E-6
0.02                     190                      1.8835430248875635E-6
0.02                     191                      1.8862265864776083E-6
0.02                     192                      1.888917449289636E-6
0.02                     193                      1.891614413191007E-6
0.02                     194                      1.8943173043966578E-6
0.02                     195                      1.897026976526565E-6
0.02                     196                      1.8997434295806458E-6
0.02                     197                      1.9024666635591712E-6
0.02                     198                      1.9051966784613314E-6
0.02                     199                      1.9079334742879887E-6
0.02                     200                      1.9106770510390127E-6
0.02                     201                      1.9134256600048786E-6
0.02                     202                      1.9161800397520074E-6
0.02                     203                      1.9189406656416435E-6
0.02                     204                      1.9217075376739514E-6
0.02                     205                      1.924480655848738E-6
0.02                     206                      1.9272600201661688E-6
0.02                     207                      1.930045630626024E-6
0.02                     208                      1.9328374872286867E-6
0.02                     209                      1.935633275305121E-6
0.02                     210                      1.938434718483427E-6
0.02                     211                      1.94124186674626E-6
0.02                     212                      1.9440547200929354E-6
0.02                     213                      1.9468732785235686E-6
0.02                     214                      1.949697542038312E-6
0.02                     215                      1.9525275106375553E-6
0.02                     216                      1.955362781890724E-6
0.02                     217                      1.9582016984631214E-6
0.02                     218                      1.9610457827568347E-6
0.02                     219                      1.963895034771112E-6
0.02                     220                      1.966749454506709E-6
0.02                     221                      1.96960904196311E-6
0.02                     222                      1.9724737971405633E-6
0.02                     223                      1.97534372003917E-6
0.02                     224                      1.9782179553730595E-6
0.02                     225                      1.9810957060522923E-6
0.02                     226                      1.9839781013223486E-6
0.02                     227                      1.98686514118352E-6
0.02                     228                      1.9897568256359248E-6
0.02                     229                      1.9926531546787907E-6
0.02                     230                      1.9955541283131308E-6
0.02                     231                      1.9984597465381826E-6
0.02                     232                      2.0013687296055646E-6
0.02                     233                      2.0042811405315227E-6
0.02                     234                      2.007197697265662E-6
0.02                     235                      2.0101183998082337E-6
0.02                     236                      2.0130432481597693E-6
0.02                     237                      2.0159722423191304E-6
0.02                     238                      2.018905382286873E-6
0.02                     239                      2.021842668063525E-6
0.02                     240                      2.0247824507840994E-6
0.02                     241                      2.0277255992287754E-6
0.02                     242                      2.0306724278740896E-6
0.02                     243                      2.0336229367197676E-6
0.02                     244                      2.0365771257660804E-6
0.02                     245                      2.0395349950132244E-6
0.02                     246                      2.04249654446101E-6
0.02                     247                      2.045461717368828E-6
0.02                     248                      2.048428742939458E-6
0.02                     249                      2.051399023203291E-6
0.02                     250                      2.0543725581598097E-6
0.02                     251                      2.05734934780901E-6
0.02                     252                      2.0603293921511694E-6
0.02                     253                      2.0633126911860887E-6
0.02                     254                      2.066299244913886E-6
0.02                     255                      2.069288677753248E-6
0.02                     256                      2.0722799750326357E-6
0.02                     257                      2.0752741464271336E-6
0.02                     258                      2.0782711919371482E-6
0.02                     259                      2.081271111562456E-6
0.02                     260                      2.0842739053033854E-6
0.02                     261                      2.087279573159374E-6
0.02                     262                      2.0902881151309846E-6
0.02                     263                      2.0932989034382335E-6
0.02                     264                      2.096311578049675E-6
0.02                     265                      2.0993267937651423E-6
0.02                     266                      2.1023445505842556E-6
0.02                     267                      2.1053648485077977E-6
0.02                     268                      2.108387687535372E-6
0.02                     269                      2.111413067666725E-6
0.02                     270                      2.1144409889026115E-6
0.02                     271                      2.117470645589484E-6
0.02                     272                      2.1205022067631615E-6
0.02                     273                      2.1235360241778603E-6
0.02                     274                      2.1265720978340683E-6
0.02                     275                      2.129610427731565E-6
0.02                     276                      2.13265101387049E-6
0.02                     277                      2.135693856250954E-6
0.02                     278                      2.138738954872758E-6
0.02                     279                      2.1417854021232397E-6
0.02                     280                      2.1448337587028443E-6
0.02                     281                      2.147884133682219E-6
0.02                     282                      2.150936527060656E-6
0.02                     283                      2.153990938838816E-6
0.02                     284                      2.1570473690162817E-6
0.02                     285                      2.1601058175930333E-6
0.02                     286                      2.163166214495702E-6
0.02                     287                      2.166227832479119E-6
0.02                     288                      2.169291275514561E-6
0.02                     289                      2.1723565436026785E-6
0.02                     290                      2.1754236367429937E-6
0.02                     291                      2.178492554935683E-6
0.02                     292                      2.1815632981806442E-6
0.02                     293                      2.1846358664777966E-6
0.02                     294                      2.1877100726376967E-6
0.02                     295                      2.190785575049921E-6
0.02                     296                      2.1938627501045976E-6
0.02                     297                      2.1969415978009883E-6
0.02                     298                      2.2000221181391303E-6
0.02                     299                      2.203104311119369E-6
0.02                     300                      2.2061881767413254E-6
0.02                     301                      2.2092737150049245E-6
0.02                     302                      2.2123607006369158E-6
0.02                     303                      2.2154490670800728E-6
0.02                     304                      2.2185390008347976E-6
0.02                     305                      2.221630501900565E-6
0.02                     306                      2.2247235702776835E-6
0.02                     307                      2.2278182059662714E-6
0.02                     308                      2.230914408966488E-6
0.02                     309                      2.234011938460785E-6
0.02                     310                      2.2371109064808095E-6
0.02                     311                      2.2402113625273293E-6
0.02                     312                      2.243313306600785E-6
0.02                     313                      2.2464167387012244E-6
0.02                     314                      2.24952164590864E-6
0.02                     315                      2.2526278709002418E-6
0.02                     316                      2.2557355307664727E-6
0.02                     317                      2.2588446255076004E-6
0.02                     318                      2.261955155123842E-6
0.02                     319                      2.2650671196146346E-6
0.02                     320                      2.2681804261249946E-6
0.02                     321                      2.271295129037002E-6
0.02                     322                      2.274411234054187E-6
0.02                     323                      2.2775287411760988E-6
0.02                     324                      2.2806476504035067E-6
0.02                     325                      2.2837679219487523E-6
0.02                     326                      2.286889569020515E-6
0.02                     327                      2.2900126009837534E-6
0.02                     328                      2.2931370178384204E-6
0.02                     329                      2.2962628195849155E-6
0.02                     330                      2.299389991937967E-6
0.02                     331                      2.302518534278408E-6
0.02                     332                      2.3056484536290015E-6
0.02                     333                      2.308779748456869E-6
0.02                     334                      2.3119124095482635E-6
0.02                     335                      2.3150464425244417E-6
0.02                     336                      2.318181847385898E-6
0.02                     337                      2.321318625448102E-6
0.02                     338                      2.3244567767189068E-6
0.02                     339                      2.32759630077357E-6
0.02                     340                      2.3307372016210913E-6
0.02                     341                      2.333879481008839E-6
0.02                     342                      2.3370231368734205E-6
0.02                     343                      2.3401681727883456E-6
0.02                     344                      2.3433145885386986E-6
0.02                     345                      2.346462388162841E-6
0.02                     346                      2.3496115697148876E-6
0.02                     347                      2.3527621279261307E-6
0.02                     348                      2.3559140556391215E-6
0.02                     349                      2.359067357804978E-6
0.02                     350                      2.3622220495245284E-6
0.02                     351                      2.365378146565678E-6
0.02                     352                      2.3685356611368813E-6
0.02                     353                      2.371694603869568E-6
0.02                     354                      2.3748549853012816E-6
0.02                     355                      2.378016814321599E-6
0.02                     356                      2.3811800938301243E-6
0.02                     357                      2.3843448289767837E-6
0.02                     358                      2.3875110241506988E-6
0.02                     359                      2.3906786829538737E-6
0.02                     360                      2.393847807739E-6
0.02                     361                      2.3970184018047696E-6
0.02                     362                      2.4001904688091317E-6
0.02                     363                      2.403364011148322E-6
0.02                     364                      2.406539031296883E-6
0.02                     365                      2.4097155322117388E-6
0.02                     366                      2.4128935244070824E-6
0.02                     367                      2.4160730059772387E-6
0.02                     368                      2.4192539787085867E-6
0.02                     369                      2.4224364480283917E-6
0.02                     370                      2.4256204108953242E-6
0.02                     371                      2.4288058715061955E-6
0.02                     372                      2.4319928294230895E-6
0.02                     373                      2.4351812833966257E-6
0.02                     374                      2.438371232122902E-6
0.02                     375                      2.4415626763075646E-6
0.02                     376                      2.4447556107040644E-6
0.02                     377                      2.447950036635819E-6
0.02                     378                      2.451145952028906E-6
0.02                     379                      2.4543433532363124E-6
0.02                     380                      2.4575422424094213E-6
0.02                     381                      2.4607426134321667E-6
0.02                     382                      2.463944468614333E-6
0.02                     383                      2.4671478056132435E-6
0.02                     384                      2.4703526220271334E-6
0.02                     385                      2.4735589192707847E-6
0.02                     386                      2.476766692106681E-6
0.02                     387                      2.4799759428018143E-6
0.02                     388                      2.4831866684313936E-6
0.02                     389                      2.486398867218425E-6
0.02                     390                      2.489612540001905E-6
0.02                     391                      2.49282768115643E-6
0.02                     392                      2.496044293223255E-6
0.02                     393                      2.4992623719386056E-6
0.02                     394                      2.502481915904417E-6
0.02                     395                      2.505702925395317E-6
0.02                     396                      2.5089253937301E-6
0.02                     397                      2.5121493240750224E-6
0.02                     398                      2.515374710038367E-6
0.02                     399                      2.5186015509519124E-6
0.02                     400                      2.521829846099896E-6
0.02                     401                      2.5250595875634537E-6
0.02                     402                      2.5282907793067544E-6
0.02                     403                      2.531523411934217E-6
0.02                     404                      2.534757486179406E-6
0.02                     405                      2.537992999732435E-6
0.02                     406                      2.5412299437854767E-6
0.02                     407                      2.5444683230476883E-6
0.02                     408                      2.5477081242567768E-6
0.02                     409                      2.5509493504634364E-6
0.02                     410                      2.5541919968206464E-6
0.02                     411                      2.5574360539066832E-6
0.02                     412                      2.5606815271930883E-6
0.02                     413                      2.563928398554156E-6