% Model:              NP_reactive_flow_Different_injection_TCE_in_Low_Permeable.mph
% Version:            COMSOL 5.2.0.166
% Date:               Jun 8 2020, 00:39
% Table:              TCE_reacted 0.5 - tce_reacted_mass (tce_reacted_mass)
% Q_inject_design        t (s)                    The reacted TCE (mol/m)
0.5                      0                        1.5857102939245014E-6
0.5                      1                        1.5860177079290616E-6
0.5                      2                        1.5928040818470873E-6
0.5                      3                        1.6055933034071123E-6
0.5                      4                        1.6209760437608753E-6
0.5                      5                        1.6379015604489298E-6
0.5                      6                        1.656045632448148E-6
0.5                      7                        1.6752895428217273E-6
0.5                      8                        1.6956567596728534E-6
0.5                      9                        1.7175032289023115E-6
0.5                      10                       1.7411613501563658E-6
0.5                      11                       1.7662839767653602E-6
0.5                      12                       1.7921902840087908E-6
0.5                      13                       1.8184003420203263E-6
0.5                      14                       1.8448405302274334E-6
0.5                      15                       1.8714757072228381E-6
0.5                      16                       1.8983337098614557E-6
0.5                      17                       1.925399079580969E-6
0.5                      18                       1.952749987805781E-6
0.5                      19                       1.98024582587474E-6
0.5                      20                       2.0076532280848604E-6
0.5                      21                       2.034767092988862E-6
0.5                      22                       2.0611959404360898E-6
0.5                      23                       2.0866137288126336E-6
0.5                      24                       2.1109846896015844E-6
0.5                      25                       2.134345655027716E-6
0.5                      26                       2.1567376795375763E-6
0.5                      27                       2.1782369509484848E-6
0.5                      28                       2.1989552466237365E-6
0.5                      29                       2.218992669683474E-6
0.5                      30                       2.2384188157884714E-6
0.5                      31                       2.2572875912746495E-6
0.5                      32                       2.27565585760817E-6
0.5                      33                       2.2935559790520324E-6
0.5                      34                       2.3110298338140407E-6
0.5                      35                       2.3281211058305188E-6
0.5                      36                       2.3448491508863554E-6
0.5                      37                       2.3612352558357742E-6
0.5                      38                       2.377303867207927E-6
0.5                      39                       2.3931016360449804E-6
0.5                      40                       2.40861916429371E-6
0.5                      41                       2.4238696345686415E-6
0.5                      42                       2.438882964896835E-6
0.5                      43                       2.453641619894854E-6
0.5                      44                       2.468179871636768E-6
0.5                      45                       2.4825129894227787E-6
0.5                      46                       2.4966253508190383E-6
0.5                      47                       2.5105580465920377E-6
0.5                      48                       2.5243002656599294E-6
0.5                      49                       2.537854180889438E-6
0.5                      50                       2.551268944672593E-6
0.5                      51                       2.564519828610744E-6
0.5                      52                       2.577606832703383E-6
0.5                      53                       2.590529956950381E-6
0.5                      54                       2.603289201352958E-6
0.5                      55                       2.6159228106045437E-6
0.5                      56                       2.6284255824630246E-6
0.5                      57                       2.6407826876978516E-6
0.5                      58                       2.6529941263082047E-6
0.5                      59                       2.6650598982953783E-6
0.5                      60                       2.676991624223665E-6
0.5                      61                       2.688829564737513E-6
0.5                      62                       2.7005402294106356E-6
0.5                      63                       2.712123618243331E-6
0.5                      64                       2.7235797312349897E-6
0.5                      65                       2.734908568386472E-6
0.5                      66                       2.746144522138191E-6
0.5                      67                       2.7572767756462666E-6
0.5                      68                       2.76829627511761E-6
0.5                      69                       2.7792030205520994E-6
0.5                      70                       2.789997011949606E-6
0.5                      71                       2.8006999001166366E-6
0.5                      72                       2.8113568055025266E-6
0.5                      73                       2.8219260008170873E-6
0.5                      74                       2.8324074860596544E-6
0.5                      75                       2.8428012612308922E-6
0.5                      76                       2.853107326330733E-6
0.5                      77                       2.8633256813591696E-6
0.5                      78                       2.8734563263158906E-6
0.5                      79                       2.88349926120093E-6
0.5                      80                       2.8934544860145992E-6
0.5                      81                       2.9033220007566477E-6
0.5                      82                       2.913124988413036E-6
0.5                      83                       2.922885914956571E-6
0.5                      84                       2.932569989925923E-6
0.5                      85                       2.9421772133205425E-6
0.5                      86                       2.9517075851409716E-6
0.5                      87                       2.9611611053870614E-6
0.5                      88                       2.970537774058412E-6
0.5                      89                       2.9798375911556943E-6
0.5                      90                       2.989060556678644E-6
0.5                      91                       2.9982066706270307E-6
0.5                      92                       3.007275933000834E-6
0.5                      93                       3.016300888928627E-6
0.5                      94                       3.025297014548609E-6
0.5                      95                       3.0342288442253062E-6
0.5                      96                       3.0430963779585427E-6
0.5                      97                       3.0518996157481693E-6
0.5                      98                       3.0606385575945112E-6
0.5                      99                       3.069313203496972E-6
0.5                      100                      3.077923553456338E-6
0.5                      101                      3.086469607471552E-6
0.5                      102                      3.094951365543766E-6
0.5                      103                      3.1033688276723564E-6
0.5                      104                      3.11177442011761E-6
0.5                      105                      3.1201747346507503E-6
0.5                      106                      3.1285279129980668E-6
0.5                      107                      3.136833955159031E-6
0.5                      108                      3.1450928611340633E-6
0.5                      109                      3.1533046309229195E-6
0.5                      110                      3.1614692645254912E-6
0.5                      111                      3.1695867619427E-6
0.5                      112                      3.177657123173001E-6
0.5                      113                      3.1856803482176952E-6
0.5                      114                      3.193656437076376E-6
0.5                      115                      3.201585389748623E-6
0.5                      116                      3.2094672062351145E-6
0.5                      117                      3.2173018865353485E-6
0.5                      118                      3.2250894306493793E-6
0.5                      119                      3.232829838577627E-6
0.5                      120                      3.2405231103196176E-6
0.5                      121                      3.2481692458755E-6
0.5                      122                      3.255768245245572E-6
0.5                      123                      3.263320108429292E-6
0.5                      124                      3.270824835427012E-6
0.5                      125                      3.278282426238732E-6
0.5                      126                      3.28575074065525E-6
0.5                      127                      3.2932043408445216E-6
0.5                      128                      3.300618259277093E-6
0.5                      129                      3.307992495952747E-6
0.5                      130                      3.3153270508718492E-6
0.5                      131                      3.322621924034495E-6
0.5                      132                      3.329877115440386E-6
0.5                      133                      3.3370926250895903E-6
0.5                      134                      3.344268452981999E-6
0.5                      135                      3.3514045991179104E-6
0.5                      136                      3.35850106349704E-6
0.5                      137                      3.3655578461194285E-6
0.5                      138                      3.372574946985496E-6
0.5                      139                      3.379552366094727E-6
0.5                      140                      3.3864901034471765E-6
0.5                      141                      3.3933881590433184E-6
0.5                      142                      3.4002465328826514E-6
0.5                      143                      3.407065224965189E-6
0.5                      144                      3.4138442352909853E-6
0.5                      145                      3.42058356386042E-6
0.5                      146                      3.4272832106729644E-6
0.5                      147                      3.4339431757289437E-6
0.5                      148                      3.4406482628433565E-6
0.5                      149                      3.4473374548740174E-6
0.5                      150                      3.4539958176268E-6
0.5                      151                      3.4606233511019074E-6
0.5                      152                      3.4672200552995837E-6
0.5                      153                      3.473785930219192E-6
0.5                      154                      3.480320975861179E-6
0.5                      155                      3.486825192225627E-6
0.5                      156                      3.493298579312196E-6
0.5                      157                      3.4997411371207515E-6
0.5                      158                      3.5061528656519977E-6
0.5                      159                      3.5125337649056365E-6
0.5                      160                      3.518883834881058E-6
0.5                      161                      3.5252030755791706E-6
0.5                      162                      3.531491486999459E-6
0.5                      163                      3.5377490691418145E-6
0.5                      164                      3.5439758220068475E-6
0.5                      165                      3.5501717455938665E-6
0.5                      166                      3.5563368399032104E-6
0.5                      167                      3.562471104934852E-6
0.5                      168                      3.568574540688927E-6
0.5                      169                      3.5746471471649204E-6
0.5                      170                      3.5807516449737635E-6
0.5                      171                      3.5868308074426066E-6
0.5                      172                      3.592884631976981E-6
0.5                      173                      3.5989131185775646E-6
0.5                      174                      3.6049162672437064E-6
0.5                      175                      3.610894077975854E-6
0.5                      176                      3.616846550773614E-6
0.5                      177                      3.622773685637353E-6
0.5                      178                      3.6286754825668805E-6
0.5                      179                      3.6345519415621427E-6
0.5                      180                      3.640403062623492E-6
0.5                      181                      3.6462288457503724E-6
0.5                      182                      3.652029290943489E-6
0.5                      183                      3.6578043982020013E-6
0.5                      184                      3.663554167526411E-6
0.5                      185                      3.6692785989167178E-6
0.5                      186                      3.6749776923728948E-6
0.5                      187                      3.6806514478948877E-6
0.5                      188                      3.686299865482561E-6
0.5                      189                      3.6919229451363214E-6
0.5                      190                      3.697520686855911E-6
0.5                      191                      3.7031022037990416E-6
0.5                      192                      3.7087109621729763E-6
0.5                      193                      3.7142997111698213E-6
0.5                      194                      3.719868450789075E-6
0.5                      195                      3.7254171810311034E-6
0.5                      196                      3.7309459018954456E-6
0.5                      197                      3.736454613382698E-6
0.5                      198                      3.7419433154924E-6
0.5                      199                      3.7474120082245648E-6
0.5                      200                      3.75286069157945E-6
0.5                      201                      3.7582893655571642E-6
0.5                      202                      3.7636980301572465E-6
0.5                      203                      3.769086685380049E-6
0.5                      204                      3.774455331225396E-6
0.5                      205                      3.7798039676934636E-6
0.5                      206                      3.785132594783845E-6
0.5                      207                      3.7904412124971365E-6
0.5                      208                      3.7957298208328097E-6
0.5                      209                      3.8009984197914472E-6
0.5                      210                      3.806247009372263E-6
0.5                      211                      3.8114755895758673E-6
0.5                      212                      3.816684160402178E-6
0.5                      213                      3.821884216133502E-6
0.5                      214                      3.827091914508491E-6
0.5                      215                      3.83228293986571E-6
0.5                      216                      3.837457292205239E-6
0.5                      217                      3.842614971527581E-6
0.5                      218                      3.847755977832138E-6
0.5                      219                      3.852880311119278E-6
0.5                      220                      3.857987971388457E-6
0.5                      221                      3.8630789586404344E-6
0.5                      222                      3.868153272874858E-6
0.5                      223                      3.873210914091607E-6
0.5                      224                      3.878251882290774E-6
0.5                      225                      3.883276177472591E-6
0.5                      226                      3.888283799636502E-6
0.5                      227                      3.893274748783008E-6
0.5                      228                      3.898249024912178E-6
0.5                      229                      3.903206628023522E-6
0.5                      230                      3.908147558117259E-6
0.5                      231                      3.913071815193537E-6
0.5                      232                      3.917979399252505E-6
0.5                      233                      3.92287031029358E-6
0.5                      234                      3.927744548317007E-6
0.5                      235                      3.932620571918088E-6
0.5                      236                      3.937503631312083E-6
0.5                      237                      3.942373564518102E-6
0.5                      238                      3.947230371536756E-6
0.5                      239                      3.952074052367759E-6
0.5                      240                      3.9569046070112745E-6
0.5                      241                      3.9617220354669906E-6
0.5                      242                      3.966526337735287E-6
0.5                      243                      3.971317513816041E-6
0.5                      244                      3.976095563709077E-6
0.5                      245                      3.980860487414611E-6
0.5                      246                      3.9856122849325906E-6
0.5                      247                      3.9903509562629465E-6
0.5                      248                      3.995076501405693E-6
0.5                      249                      3.999788920361087E-6
0.5                      250                      4.004488213128491E-6
0.5                      251                      4.009174379708625E-6
0.5                      252                      4.013847420101095E-6
0.5                      253                      4.018507334306023E-6
0.5                      254                      4.023154122323328E-6
0.5                      255                      4.0277877841530635E-6
0.5                      256                      4.0324083197950945E-6
0.5                      257                      4.037015729249787E-6
0.5                      258                      4.0416100125167476E-6
0.5                      259                      4.046191169596085E-6
0.5                      260                      4.050759200487975E-6
0.5                      261                      4.055314105192107E-6
0.5                      262                      4.059855883708818E-6
0.5                      263                      4.0643845360380015E-6
0.5                      264                      4.068900062179412E-6
0.5                      265                      4.073402462133444E-6
0.5                      266                      4.077891735899757E-6
0.5                      267                      4.0823678834782845E-6
0.5                      268                      4.086830904869582E-6
0.5                      269                      4.091280800073188E-6
0.5                      270                      4.095717569089157E-6
0.5                      271                      4.100141211917639E-6
0.5                      272                      4.104551728558456E-6
0.5                      273                      4.1089491190117184E-6
0.5                      274                      4.113333383277344E-6
0.5                      275                      4.1177045213554E-6
0.5                      276                      4.122062533245955E-6
0.5                      277                      4.1264074189488594E-6
0.5                      278                      4.130739178464168E-6
0.5                      279                      4.13508440573258E-6
0.5                      280                      4.139425481866586E-6
0.5                      281                      4.1437549701286405E-6
0.5                      282                      4.148072870518581E-6
0.5                      283                      4.152379183036515E-6
0.5                      284                      4.156673907682593E-6
0.5                      285                      4.160957044456543E-6
0.5                      286                      4.165228593358433E-6
0.5                      287                      4.169488554388494E-6
0.5                      288                      4.173736927546345E-6
0.5                      289                      4.177973712832312E-6
0.5                      290                      4.18219891024645E-6
0.5                      291                      4.186412519788447E-6
0.5                      292                      4.190614541458397E-6
0.5                      293                      4.194804975256382E-6
0.5                      294                      4.198983821182374E-6
0.5                      295                      4.203151079236144E-6
0.5                      296                      4.2073067494183015E-6
0.5                      297                      4.211450831728087E-6
0.5                      298                      4.215583326166178E-6
0.5                      299                      4.2197042327319116E-6
0.5                      300                      4.223813551425937E-6
0.5                      301                      4.227911282247835E-6
0.5                      302                      4.231997425197849E-6
0.5                      303                      4.236071980275681E-6
0.5                      304                      4.240134947481792E-6
0.5                      305                      4.24418632681568E-6
0.5                      306                      4.248226118277535E-6
0.5                      307                      4.25225432186752E-6
0.5                      308                      4.256270937585445E-6
0.5                      309                      4.260275965431418E-6
0.5                      310                      4.264269405405318E-6
0.5                      311                      4.268251257507266E-6
0.5                      312                      4.272221521737046E-6
0.5                      313                      4.27618019809505E-6
0.5                      314                      4.280127286581008E-6
0.5                      315                      4.284062787194824E-6
0.5                      316                      4.28798669993673E-6
0.5                      317                      4.291899024806711E-6
0.5                      318                      4.295799761804713E-6
0.5                      319                      4.299688910930303E-6
0.5                      320                      4.303566472184389E-6
0.5                      321                      4.307432445566252E-6
0.5                      322                      4.311291708187695E-6
0.5                      323                      4.315190919892094E-6
0.5                      324                      4.3190810584957146E-6
0.5                      325                      4.322962123998571E-6
0.5                      326                      4.326834116400677E-6
0.5                      327                      4.330697035701884E-6
0.5                      328                      4.334550881902462E-6
0.5                      329                      4.3383956550021E-6
0.5                      330                      4.342231355000946E-6
0.5                      331                      4.346057981899015E-6
0.5                      332                      4.349875535696455E-6
0.5                      333                      4.353684016392942E-6
0.5                      334                      4.357483423988515E-6
0.5                      335                      4.361273758483718E-6
0.5                      336                      4.365055019877695E-6
0.5                      337                      4.368827208171112E-6
0.5                      338                      4.372590323363656E-6
0.5                      339                      4.376344365455504E-6
0.5                      340                      4.380089334446574E-6
0.5                      341                      4.383825230336717E-6
0.5                      342                      4.387552053126029E-6
0.5                      343                      4.391269802814753E-6
0.5                      344                      4.394978479402699E-6
0.5                      345                      4.398678082889705E-6
0.5                      346                      4.402368613275797E-6
0.5                      347                      4.4060500705614105E-6
0.5                      348                      4.409722454746083E-6
0.5                      349                      4.413385765829938E-6
0.5                      350                      4.41704000381311E-6
0.5                      351                      4.420685168695206E-6
0.5                      352                      4.4243212604768226E-6
0.5                      353                      4.427948279157634E-6
0.5                      354                      4.431566224737398E-6
0.5                      355                      4.435175097216627E-6
0.5                      356                      4.438774896595052E-6
0.5                      357                      4.442365622872509E-6
0.5                      358                      4.445947276049379E-6
0.5                      359                      4.449519856125281E-6
0.5                      360                      4.453083363100595E-6
0.5                      361                      4.456637796974888E-6
0.5                      362                      4.460183157748511E-6
0.5                      363                      4.463719445421357E-6
0.5                      364                      4.467246659993344E-6
0.5                      365                      4.470764801464634E-6
0.5                      366                      4.474287267738024E-6
0.5                      367                      4.477821851942286E-6
0.5                      368                      4.48134888383152E-6
0.5                      369                      4.484868363405318E-6
0.5                      370                      4.488380290663951E-6
0.5                      371                      4.491884665607421E-6
0.5                      372                      4.495381488236051E-6
0.5                      373                      4.498870758549138E-6
0.5                      374                      4.502352476547114E-6
0.5                      375                      4.505826642230035E-6
0.5                      376                      4.509293255597791E-6
0.5                      377                      4.5127523166503015E-6
0.5                      378                      4.5162038253878105E-6
0.5                      379                      4.519647781809857E-6
0.5                      380                      4.523084185916875E-6
0.5                      381                      4.526513037708945E-6
0.5                      382                      4.52993433718558E-6
0.5                      383                      4.533348084347105E-6
0.5                      384                      4.536754279193519E-6
0.5                      385                      4.540152921724715E-6
0.5                      386                      4.543544011940666E-6
0.5                      387                      4.546927549841669E-6
0.5                      388                      4.550303535427318E-6
0.5                      389                      4.553671968697667E-6
0.5                      390                      4.5570328496532045E-6
0.5                      391                      4.560386178293306E-6
0.5                      392                      4.563731954618325E-6
0.5                      393                      4.567070178628234E-6
0.5                      394                      4.57040085032287E-6
0.5                      395                      4.573723969702315E-6
0.5                      396                      4.5770395367666764E-6
0.5                      397                      4.580347551515874E-6
0.5                      398                      4.5836480139498255E-6
0.5                      399                      4.586940924068803E-6
0.5                      400                      4.590226281872588E-6
0.5                      401                      4.593504087360939E-6
0.5                      402                      4.596774340534396E-6
0.5                      403                      4.600037041392445E-6
0.5                      404                      4.6032921899356275E-6
0.5                      405                      4.606539786163483E-6
0.5                      406                      4.609779830076039E-6
0.5                      407                      4.613012321673458E-6
0.5                      408                      4.6162372609557666E-6
0.5                      409                      4.619454647923019E-6
0.5                      410                      4.62268328907972E-6
0.5                      411                      4.625913053511315E-6
0.5                      412                      4.629136457642765E-6
0.5                      413                      4.632353501473637E-6
0.5                      414                      4.635564185004174E-6
0.5                      415                      4.638768508233998E-6