% Model:              NP_reactive_flow_Different_injection_TCE_in_Low_Permeable.mph
% Version:            COMSOL 5.2.0.166
% Date:               Jun 15 2020, 02:04
% Table:              np_outflow_concentraion0 - np_outflow_concentraion (np_outflow_concentraion)
% Q_inject_design        t (s)                    np_outflow_concentraion (mol/(m*s))
0.1                      0                        5.865199050176074E-36
0.1                      1                        2.0773946376595124E-32
0.1                      2                        1.3580384091105264E-30
0.1                      3                        5.6077084252734075E-31
0.1                      4                        -7.35522943904408E-29
0.1                      5                        4.312312438041319E-28
0.1                      6                        -1.724491916596809E-28
0.1                      7                        -2.3331988532037652E-27
0.1                      8                        9.953014469579176E-27
0.1                      9                        -7.387224221479116E-27
0.1                      10                       -4.629284623851206E-26
0.1                      11                       5.370515128134738E-26
0.1                      12                       1.652696438431496E-25
0.1                      13                       1.7438307741729003E-26
0.1                      14                       -2.7889671787633564E-25
0.1                      15                       -3.3813854656654864E-25
0.1                      16                       1.8238375544643104E-25
0.1                      17                       1.1484949095866962E-24
0.1                      18                       1.8402243509620257E-24
0.1                      19                       1.2560833764784071E-24
0.1                      20                       -1.3933455639832E-24
0.1                      21                       -6.278987716097965E-24
0.1                      22                       -1.2282840869215713E-23
0.1                      23                       -1.6389560858017756E-23
0.1                      24                       -1.3572698206790672E-23
0.1                      25                       2.0813917101984905E-24
0.1                      26                       3.4556350963513535E-23
0.1                      27                       8.247131748752145E-23
0.1                      28                       1.382564529608871E-22
0.1                      29                       1.9302573214684027E-22
0.1                      30                       2.4776345362895365E-22
0.1                      31                       3.1577943119414427E-22
0.1                      32                       4.122365292756129E-22
0.1                      33                       5.08430505943178E-22
0.1                      34                       4.343737426017818E-22
0.1                      35                       -4.0832845926852235E-22
0.1                      36                       -3.104449816402947E-21
0.1                      37                       -7.37912476025752E-21
0.1                      38                       -1.2661531366950302E-20
0.1                      39                       -1.769902273397363E-20
0.1                      40                       -1.2224190394671381E-20
0.1                      41                       7.186704770556334E-21
0.1                      42                       8.689826377249833E-20
0.1                      43                       2.350671303458544E-19
0.1                      44                       6.039778230464604E-19
0.1                      45                       1.1900831499346844E-18
0.1                      46                       2.2938492853773516E-18
0.1                      47                       3.705738679373231E-18
0.1                      48                       4.927296453615146E-18
0.1                      49                       4.5804187051153456E-18
0.1                      50                       -5.025045783686601E-18
0.1                      51                       -2.941089519420092E-17
0.1                      52                       -1.0768165471417317E-16
0.1                      53                       -2.5741169013123176E-16
0.1                      54                       -6.207466905203339E-16
0.1                      55                       -1.2395208244302812E-15
0.1                      56                       -2.512448127261184E-15
0.1                      57                       -4.46652078364589E-15
0.1                      58                       -7.813168429549323E-15
0.1                      59                       -1.2081644060432051E-14
0.1                      60                       -1.658420803693735E-14
0.1                      61                       -2.1081861781132214E-14
0.1                      62                       -2.3128167614428427E-14
0.1                      63                       -1.7387474190858297E-14
0.1                      64                       1.0689244352472E-14
0.1                      65                       8.577327266999317E-14
0.1                      66                       2.5413497670212226E-13
0.1                      67                       6.080233916901396E-13
0.1                      68                       1.324723267331416E-12
0.1                      69                       2.700189677179534E-12
0.1                      70                       5.208803954158106E-12
0.1                      71                       9.655636393419741E-12
0.1                      72                       1.7281600299402337E-11
0.1                      73                       3.014534574363908E-11
0.1                      74                       5.140317682722373E-11
0.1                      75                       8.570444039005964E-11
0.1                      76                       1.3989757344738225E-10
0.1                      77                       2.2419304287434737E-10
0.1                      78                       3.538181901764228E-10
0.1                      79                       5.507769899240917E-10
0.1                      80                       8.460791152276014E-10
0.1                      81                       1.2826431804182638E-9
0.1                      82                       1.9200342637912806E-9
0.1                      83                       2.840094167561491E-9
0.1                      84                       4.152892166840909E-9
0.1                      85                       6.026549252656017E-9
0.1                      86                       8.65076369963246E-9
0.1                      87                       1.2259298455243935E-8
0.1                      88                       1.7188188423348058E-8
0.1                      89                       2.3867704291376294E-8
0.1                      90                       3.279287669052906E-8
0.1                      91                       4.457899599234108E-8
0.1                      92                       5.997133305246151E-8
0.1                      93                       7.985944823550194E-8
0.1                      94                       1.0528842246519078E-7
0.1                      95                       1.374804147209754E-7
0.1                      96                       1.778766506780008E-7
0.1                      97                       2.279859874039755E-7
0.1                      98                       2.895060467808325E-7
0.1                      99                       3.642545790450693E-7
0.1                      100                      4.5413561785007565E-7
0.1                      101                      5.610836238826262E-7
0.1                      102                      6.878986594780018E-7
0.1                      103                      8.353848538580353E-7
0.1                      104                      1.0056474232893172E-6
0.1                      105                      1.1994493365644445E-6
0.1                      106                      1.4182863051670652E-6
0.1                      107                      1.6635469136705454E-6
0.1                      108                      1.93494750422625E-6
0.1                      109                      2.232772403846256E-6
0.1                      110                      2.5557732829508127E-6
0.1                      111                      2.9031504419831085E-6
0.1                      112                      3.2720307764746493E-6
0.1                      113                      3.659519523300413E-6
0.1                      114                      4.062509566488882E-6
0.1                      115                      4.4679971900799155E-6
0.1                      116                      4.8795135660334586E-6
0.1                      117                      5.297058694349504E-6
0.1                      118                      5.7046282988648295E-6
0.1                      119                      6.109736858043695E-6
0.1                      120                      6.512819524217401E-6
0.1                      121                      6.899710280236772E-6
0.1                      122                      7.273377460537572E-6
0.1                      123                      7.636241394974027E-6
0.1                      124                      7.982476164340885E-6
0.1                      125                      8.311110077081651E-6
0.1                      126                      8.624330862711587E-6
0.1                      127                      8.921579475513204E-6
0.1                      128                      9.202429736752162E-6
0.1                      129                      9.467269948010068E-6
0.1                      130                      9.71736035918285E-6
0.1                      131                      9.955035976552702E-6
0.1                      132                      1.0178694986209993E-5
0.1                      133                      1.0389537967828992E-5
0.1                      134                      1.0592983224412735E-5
0.1                      135                      1.0785834814978399E-5
0.1                      136                      1.0968472906195712E-5
0.1                      137                      1.1148933800338724E-5
0.1                      138                      1.1322924872248874E-5
0.1                      139                      1.1490446121926148E-5
0.1                      140                      1.1651497549370564E-5
0.1                      141                      1.1806079154582108E-5
0.1                      142                      1.1954190937560789E-5
0.1                      143                      1.2098844788312843E-5
0.1                      144                      1.223899919698528E-5
0.1                      145                      1.2373814537652196E-5
0.1                      146                      1.2503290810313583E-5
0.1                      147                      1.262742801496946E-5
0.1                      148                      1.2746226151619805E-5
0.1                      149                      1.2860682985790032E-5
0.1                      150                      1.2971483750923622E-5
0.1                      151                      1.3077598731569991E-5
0.1                      152                      1.3179027927729125E-5
0.1                      153                      1.327577133940103E-5
0.1                      154                      1.3367828966585697E-5
0.1                      155                      1.3455399245244685E-5
0.1                      156                      1.3539648204009022E-5
0.1                      157                      1.3619622570521316E-5
0.1                      158                      1.3695322344781572E-5
0.1                      159                      1.376674752678979E-5
0.1                      160                      1.3833898116545966E-5
0.1                      161                      1.3896774114050106E-5
0.1                      162                      1.39572475665942E-5
0.1                      163                      1.4014355673407669E-5
0.1                      164                      1.4067807490126411E-5
0.1                      165                      1.4117603016750427E-5
0.1                      166                      1.4163742253279717E-5
0.1                      167                      1.4206225199714272E-5
0.1                      168                      1.4246722222641545E-5
0.1                      169                      1.4285653323984848E-5
0.1                      170                      1.4321824476231511E-5
0.1                      171                      1.4355235679381517E-5
0.1                      172                      1.4385886933434876E-5
0.1                      173                      1.4413778238391586E-5
0.1                      174                      1.4439983963260988E-5
0.1                      175                      1.4467643462362254E-5
0.1                      176                      1.4493901361669616E-5
0.1                      177                      1.4518757661183081E-5
0.1                      178                      1.4542212360902638E-5
0.1                      179                      1.4564265460828295E-5
0.1                      180                      1.4584916960960053E-5
0.1                      181                      1.4604166861297904E-5
0.1                      182                      1.4622015161841856E-5
0.1                      183                      1.4638461862591911E-5
0.1                      184                      1.4653506963548054E-5
0.1                      185                      1.46671504647103E-5
0.1                      186                      1.467939236607864E-5
0.1                      187                      1.4692531647677645E-5
0.1                      188                      1.4706028833564184E-5
0.1                      189                      1.4718669981375287E-5
0.1                      190                      1.4730455091110973E-5
0.1                      191                      1.4741384162771222E-5
0.1                      192                      1.4751457196356044E-5
0.1                      193                      1.4760674191865436E-5
0.1                      194                      1.4769035149299399E-5
0.1                      195                      1.477654006865793E-5
0.1                      196                      1.4783188949941035E-5
0.1                      197                      1.4788981793148707E-5
0.1                      198                      1.4793918598280955E-5
0.1                      199                      1.479808706822248E-5
0.1                      200                      1.4804350146690157E-5
0.1                      201                      1.4810201790315667E-5
0.1                      202                      1.4815641999099039E-5
0.1                      203                      1.4820670773040265E-5
0.1                      204                      1.4825288112139333E-5
0.1                      205                      1.4829494016396264E-5
0.1                      206                      1.4833288485811037E-5
0.1                      207                      1.4836671520383663E-5
0.1                      208                      1.4839643120114143E-5
0.1                      209                      1.4842203285002478E-5
0.1                      210                      1.4844352015048653E-5
0.1                      211                      1.4846089310252688E-5
0.1                      212                      1.484800586758492E-5
0.1                      213                      1.485045873611458E-5
0.1                      214                      1.4852712997132597E-5
0.1                      215                      1.4854768650638971E-5
0.1                      216                      1.4856625696633699E-5
0.1                      217                      1.4858284135116787E-5
0.1                      218                      1.4859743966088233E-5
0.1                      219                      1.4861005189548033E-5
0.1                      220                      1.4862067805496189E-5
0.1                      221                      1.4862931813932702E-5
0.1                      222                      1.4863597214857579E-5
0.1                      223                      1.4864064008270806E-5
0.1                      224                      1.4864332194172393E-5
0.1                      225                      1.4865173798895246E-5
0.1                      226                      1.4866112998553519E-5
0.1                      227                      1.4866993716613354E-5
0.1                      228                      1.4867815953074733E-5
0.1                      229                      1.4868579707937657E-5
0.1                      230                      1.4869284981202139E-5
0.1                      231                      1.4869931772868167E-5
0.1                      232                      1.4870520082935748E-5
0.1                      233                      1.4871049911404879E-5
0.1                      234                      1.4871521258275562E-5
0.1                      235                      1.4871934123547786E-5
0.1                      236                      1.4872288507221564E-5
0.1                      237                      1.4872584409296895E-5
0.1                      238                      1.4872821829773768E-5
0.1                      239                      1.48730007686522E-5
0.1                      240                      1.4873121225932173E-5
0.1                      241                      1.4873183201613705E-5
0.1                      242                      1.4873186695696778E-5
0.1                      243                      1.4873131708181408E-5
0.1                      244                      1.4873018239067583E-5
0.1                      245                      1.4872846288355313E-5
0.1                      246                      1.4872615856044587E-5
0.1                      247                      1.4872326942135417E-5
0.1                      248                      1.4871979546627788E-5
0.1                      249                      1.4871573669521716E-5
0.1                      250                      1.4871408102535625E-5
0.1                      251                      1.487140543493711E-5
0.1                      252                      1.4871382211703595E-5
0.1                      253                      1.4871338432835083E-5
0.1                      254                      1.4871274098331574E-5
0.1                      255                      1.4871189208193064E-5
0.1                      256                      1.4871083762419559E-5
0.1                      257                      1.487095776101106E-5
0.1                      258                      1.4870811203967565E-5
0.1                      259                      1.487064409128907E-5
0.1                      260                      1.487045642297558E-5
0.1                      261                      1.4870248199027093E-5
0.1                      262                      1.4870019419443606E-5
0.1                      263                      1.4869770084225128E-5
0.1                      264                      1.486950019337165E-5
0.1                      265                      1.4869209746883174E-5
0.1                      266                      1.4868898744759708E-5
0.1                      267                      1.4868567187001237E-5
0.1                      268                      1.4868215073607775E-5
0.1                      269                      1.4867842404579314E-5
0.1                      270                      1.4867449179915854E-5
0.1                      271                      1.4867035399617394E-5
0.1                      272                      1.4866601063683947E-5
0.1                      273                      1.4866146172115495E-5
0.1                      274                      1.4865670724912049E-5
0.1                      275                      1.486531847191681E-5
0.1                      276                      1.4865181181597034E-5
0.1                      277                      1.486505141921535E-5
0.1                      278                      1.4864929184771774E-5
0.1                      279                      1.4864814478266295E-5
0.1                      280                      1.4864707299698913E-5
0.1                      281                      1.4864607649069635E-5
0.1                      282                      1.486451552637846E-5
0.1                      283                      1.4864430931625377E-5
0.1                      284                      1.4864353864810396E-5
0.1                      285                      1.4864284325933517E-5
0.1                      286                      1.4864222314994735E-5
0.1                      287                      1.4864167831994056E-5
0.1                      288                      1.486412087693147E-5
0.1                      289                      1.4864081449806996E-5
0.1                      290                      1.4864049550620614E-5
0.1                      291                      1.486402517937233E-5
0.1                      292                      1.4864008336062147E-5
0.1                      293                      1.4863999020690061E-5
0.1                      294                      1.486399723325608E-5
0.1                      295                      1.4864002973760195E-5
0.1                      296                      1.4864016242202413E-5
0.1                      297                      1.4864037038582728E-5
0.1                      298                      1.4864065362901142E-5
0.1                      299                      1.4864101215157658E-5
0.1                      300                      1.4864147567807934E-5
0.1                      301                      1.4864214918799785E-5
0.1                      302                      1.4864291034547634E-5
0.1                      303                      1.48643759150515E-5
0.1                      304                      1.4864469560311368E-5
0.1                      305                      1.4864571970327242E-5
0.1                      306                      1.4864683145099118E-5
0.1                      307                      1.4864803084626994E-5
0.1                      308                      1.4864931788910883E-5
0.1                      309                      1.4865069257950768E-5
0.1                      310                      1.486521549174666E-5
0.1                      311                      1.486537049029856E-5
0.1                      312                      1.4865534253606467E-5
0.1                      313                      1.4865706781670371E-5
0.1                      314                      1.4865888074490283E-5
0.1                      315                      1.48660781320662E-5
0.1                      316                      1.4866276954398122E-5
0.1                      317                      1.4866484541486049E-5
0.1                      318                      1.4866700893329977E-5
0.1                      319                      1.4866926009929912E-5
0.1                      320                      1.4867159891285852E-5
0.1                      321                      1.4867402537397797E-5
0.1                      322                      1.4867653948265742E-5
0.1                      323                      1.48679141238897E-5
0.1                      324                      1.4868183064269658E-5
0.1                      325                      1.4868460769405617E-5
0.1                      326                      1.486876879618575E-5
0.1                      327                      1.4869087720016507E-5
0.1                      328                      1.4869417090596855E-5
0.1                      329                      1.4869756907926785E-5
0.1                      330                      1.4870107172006309E-5
0.1                      331                      1.4870467882835418E-5
0.1                      332                      1.4870839040414122E-5
0.1                      333                      1.4871220644742408E-5
0.1                      334                      1.487161269582029E-5
0.1                      335                      1.4872015193647763E-5
0.1                      336                      1.487242813822482E-5
0.1                      337                      1.4872851529551474E-5
0.1                      338                      1.4873285367627706E-5
0.1                      339                      1.4873729652453535E-5
0.1                      340                      1.4874184384028955E-5
0.1                      341                      1.4874649562353958E-5
0.1                      342                      1.4875125187428556E-5
0.1                      343                      1.4875611259252733E-5
0.1                      344                      1.4876107777826512E-5
0.1                      345                      1.4876614743149878E-5
0.1                      346                      1.487713215522283E-5
0.1                      347                      1.4877660014045372E-5
0.1                      348                      1.4878198319617505E-5
0.1                      349                      1.4878747071939222E-5
0.1                      350                      1.487930627101054E-5
0.1                      351                      1.4879767942817011E-5
0.1                      352                      1.4880197923316233E-5
0.1                      353                      1.488062753050391E-5
0.1                      354                      1.488105676438004E-5
0.1                      355                      1.4881485624944612E-5
0.1                      356                      1.4881914112197644E-5
0.1                      357                      1.488234222613912E-5
0.1                      358                      1.4882769966769051E-5
0.1                      359                      1.4883197334087438E-5
0.1                      360                      1.4883624328094268E-5
0.1                      361                      1.488405094878956E-5
0.1                      362                      1.4884477196173295E-5
0.1                      363                      1.4884903070245483E-5
0.1                      364                      1.4885328571006126E-5
0.1                      365                      1.4885753698455215E-5
0.1                      366                      1.488617845259276E-5
0.1                      367                      1.4886602833418749E-5
0.1                      368                      1.48870268409332E-5
0.1                      369                      1.4887450475136096E-5
0.1                      370                      1.4887873736027441E-5
0.1                      371                      1.4888296623607238E-5
0.1                      372                      1.4888719137875489E-5
0.1                      373                      1.4889141278832194E-5
0.1                      374                      1.4889563046477343E-5
0.1                      375                      1.4889984440810954E-5
0.1                      376                      1.4890417976921967E-5
0.1                      377                      1.489086241952031E-5
0.1                      378                      1.4891308230363676E-5
0.1                      379                      1.4891755409452083E-5
0.1                      380                      1.4892203956785516E-5
0.1                      381                      1.489265387236398E-5
0.1                      382                      1.4893105156187477E-5
0.1                      383                      1.4893557808256E-5
0.1                      384                      1.4894011828569559E-5
0.1                      385                      1.4894467217128149E-5
0.1                      386                      1.4894923973931768E-5
0.1                      387                      1.4895382098980423E-5
0.1                      388                      1.4895841592274105E-5
0.1                      389                      1.4896302453812815E-5
0.1                      390                      1.4896764683596557E-5
0.1                      391                      1.4897228281625335E-5
0.1                      392                      1.4897693247899143E-5
0.1                      393                      1.489815958241798E-5
0.1                      394                      1.4898627285181853E-5
0.1                      395                      1.4899096356190748E-5
0.1                      396                      1.4899566795444677E-5
0.1                      397                      1.490003860294364E-5
0.1                      398                      1.4900511778687633E-5
0.1                      399                      1.4900986322676654E-5
0.1                      400                      1.4901462234910709E-5
0.1                      401                      1.4901893853824792E-5
0.1                      402                      1.4902234078872693E-5
0.1                      403                      1.4902565382358656E-5
0.1                      404                      1.4902887764282692E-5
0.1                      405                      1.4903201224644779E-5
0.1                      406                      1.4903505763444937E-5
0.1                      407                      1.4903801380683158E-5
0.1                      408                      1.4904088076359442E-5
0.1                      409                      1.4904365850473788E-5
0.1                      410                      1.4904634703026204E-5
0.1                      411                      1.4904894634016682E-5