% Model:              NP_reactive_flow_Different_injection_TCE_in_Low_Permeable2.mph
% Version:            COMSOL 5.2.0.166
% Date:               Jun 15 2020, 01:37
% Table:              Table 61 - np_retention_mass_lowPM (np_retention_mass_lowPM)
% lowPM_per              t (s)                    np_retention_mass_lowPM (mol/m)
1.0E-11                  0                        1.1201660112399372E-13
1.0E-11                  1                        3.670095918615797E-12
1.0E-11                  2                        -2.5530455923371977E-10
1.0E-11                  3                        1.136745422343687E-9
1.0E-11                  4                        -1.1831433232374633E-9
1.0E-11                  5                        -1.9424232878107877E-8
1.0E-11                  6                        -3.293976626557372E-8
1.0E-11                  7                        1.1571999789674175E-8
1.0E-11                  8                        1.489543193270017E-7
1.0E-11                  9                        4.013177412181619E-7
1.0E-11                  10                       8.066166472060662E-7
1.0E-11                  11                       1.355483964733627E-6
1.0E-11                  12                       2.0503337319250546E-6
1.0E-11                  13                       2.8963305262989727E-6
1.0E-11                  14                       3.878353377950925E-6
1.0E-11                  15                       4.991681424852592E-6
1.0E-11                  16                       6.238562901077435E-6
1.0E-11                  17                       7.605389116464709E-6
1.0E-11                  18                       9.087291173308275E-6
1.0E-11                  19                       1.0689833370347442E-5
1.0E-11                  20                       1.2402386351638669E-5
1.0E-11                  21                       1.421893075723096E-5
1.0E-11                  22                       1.614351137250448E-5
1.0E-11                  23                       1.817036555254317E-5
1.0E-11                  24                       2.029403918287327E-5
1.0E-11                  25                       2.2519540817292465E-5
1.0E-11                  26                       2.4844432495354113E-5
1.0E-11                  27                       2.726367471403533E-5
1.0E-11                  28                       2.9778641182004855E-5
1.0E-11                  29                       3.2388906557375056E-5
1.0E-11                  30                       3.509097129155082E-5
1.0E-11                  31                       3.788493243351867E-5
1.0E-11                  32                       4.076978714624421E-5
1.0E-11                  33                       4.3742966624021097E-5
1.0E-11                  34                       4.680547101421973E-5
1.0E-11                  35                       4.995936116149949E-5
1.0E-11                  36                       5.319933846526221E-5
1.0E-11                  37                       5.6523878812971736E-5
1.0E-11                  38                       5.993608281992733E-5
1.0E-11                  39                       6.343451587729175E-5
1.0E-11                  40                       6.701811376691611E-5
1.0E-11                  41                       7.068618133308576E-5
1.0E-11                  42                       7.443891676636347E-5
1.0E-11                  43                       7.827661784825412E-5
1.0E-11                  44                       8.219973774570302E-5
1.0E-11                  45                       8.620845176320893E-5
1.0E-11                  46                       9.030229410926426E-5
1.0E-11                  47                       9.44818364493927E-5
1.0E-11                  48                       9.87476844291789E-5
1.0E-11                  49                       1.0310191140507722E-4
1.0E-11                  50                       1.075443882779411E-4
1.0E-11                  51                       1.1207528605074052E-4
1.0E-11                  52                       1.1669664621917085E-4
1.0E-11                  53                       1.21409380126595E-4
1.0E-11                  54                       1.2621341772206133E-4
1.0E-11                  55                       1.3110884133286623E-4
1.0E-11                  56                       1.3609589417121472E-4
1.0E-11                  57                       1.411710136131314E-4
1.0E-11                  58                       1.463339596147965E-4
1.0E-11                  59                       1.5158318370894788E-4
1.0E-11                  60                       1.5691318615048173E-4
1.0E-11                  61                       1.623204042869986E-4
1.0E-11                  62                       1.6779440898101933E-4
1.0E-11                  63                       1.733344120438136E-4
1.0E-11                  64                       1.7893521952993204E-4
1.0E-11                  65                       1.8458404982944814E-4
1.0E-11                  66                       1.9027814633970625E-4
1.0E-11                  67                       1.960054680328413E-4
1.0E-11                  68                       2.0176044312615062E-4
1.0E-11                  69                       2.0753801734722316E-4
1.0E-11                  70                       2.1333106284900777E-4
1.0E-11                  71                       2.1913894421219705E-4
1.0E-11                  72                       2.2495741694707723E-4
1.0E-11                  73                       2.3076208982540007E-4
1.0E-11                  74                       2.3657006502330024E-4
1.0E-11                  75                       2.423810205863035E-4
1.0E-11                  76                       2.4819207702407635E-4
1.0E-11                  77                       2.5400088225866895E-4
1.0E-11                  78                       2.598045896617839E-4
1.0E-11                  79                       2.6559916506659715E-4
1.0E-11                  80                       2.7138345344621595E-4
1.0E-11                  81                       2.77157298342504E-4
1.0E-11                  82                       2.8292119256911197E-4
1.0E-11                  83                       2.886718690309971E-4
1.0E-11                  84                       2.944086845217284E-4
1.0E-11                  85                       3.001306463083086E-4
1.0E-11                  86                       3.0583649107203913E-4
1.0E-11                  87                       3.115252799067288E-4
1.0E-11                  88                       3.1719685231106174E-4
1.0E-11                  89                       3.2285191457253134E-4
1.0E-11                  90                       3.2849053976720307E-4
1.0E-11                  91                       3.3411220259826153E-4
1.0E-11                  92                       3.3971681751714615E-4
1.0E-11                  93                       3.4530435594793795E-4
1.0E-11                  94                       3.5087469635091594E-4
1.0E-11                  95                       3.564278269198044E-4
1.0E-11                  96                       3.619641893023094E-4
1.0E-11                  97                       3.6748382692254665E-4
1.0E-11                  98                       3.729869281841833E-4
1.0E-11                  99                       3.784751834395863E-4
1.0E-11                  100                      3.8395139878073884E-4
1.0E-11                  101                      3.8941331083160077E-4
1.0E-11                  102                      3.948604341922938E-4
1.0E-11                  103                      4.002923218512787E-4
1.0E-11                  104                      4.057091830145808E-4
1.0E-11                  105                      4.111112963705554E-4
1.0E-11                  106                      4.164991468349297E-4
1.0E-11                  107                      4.2187303069947716E-4
1.0E-11                  108                      4.272325701663612E-4
1.0E-11                  109                      4.3257801274053213E-4
1.0E-11                  110                      4.379104080678798E-4
1.0E-11                  111                      4.4322985408329E-4
1.0E-11                  112                      4.4853536368969453E-4
1.0E-11                  113                      4.538262953388858E-4
1.0E-11                  114                      4.591039187987866E-4
1.0E-11                  115                      4.643690956441554E-4
1.0E-11                  116                      4.6962205594569355E-4
1.0E-11                  117                      4.748624992091242E-4
1.0E-11                  118                      4.800909121278449E-4
1.0E-11                  119                      4.8530914158061644E-4
1.0E-11                  120                      4.905144949427886E-4
1.0E-11                  121                      4.957062769211835E-4
1.0E-11                  122                      5.00884969511236E-4
1.0E-11                  123                      5.060504919958035E-4
1.0E-11                  124                      5.112026714262701E-4
1.0E-11                  125                      5.163415028755302E-4
1.0E-11                  126                      5.214669971300599E-4
1.0E-11                  127                      5.265793622128606E-4
1.0E-11                  128                      5.316785211521445E-4
1.0E-11                  129                      5.367644452318783E-4
1.0E-11                  130                      5.418402311775043E-4
1.0E-11                  131                      5.469059455602532E-4
1.0E-11                  132                      5.519612914606375E-4
1.0E-11                  133                      5.570036000194993E-4
1.0E-11                  134                      5.620316383951703E-4
1.0E-11                  135                      5.670468897438335E-4
1.0E-11                  136                      5.72049691246948E-4
1.0E-11                  137                      5.770409994013748E-4
1.0E-11                  138                      5.820201927207727E-4
1.0E-11                  139                      5.869872712051396E-4
1.0E-11                  140                      5.919422079141723E-4
1.0E-11                  141                      5.968850168778007E-4
1.0E-11                  142                      6.01815698297381E-4
1.0E-11                  143                      6.067353580996215E-4
1.0E-11                  144                      6.116440380215789E-4
1.0E-11                  145                      6.165413825053604E-4
1.0E-11                  146                      6.214279462684539E-4
1.0E-11                  147                      6.263044917314142E-4
1.0E-11                  148                      6.311704345233492E-4
1.0E-11                  149                      6.36025904163094E-4
1.0E-11                  150                      6.40872091244854E-4
1.0E-11                  151                      6.457083159685237E-4
1.0E-11                  152                      6.505345783341019E-4
1.0E-11                  153                      6.553578331134197E-4
1.0E-11                  154                      6.60176296914176E-4
1.0E-11                  155                      6.649888765905513E-4
1.0E-11                  156                      6.697955721425439E-4
1.0E-11                  157                      6.745963835701525E-4
1.0E-11                  158                      6.793913108733813E-4
1.0E-11                  159                      6.841782076117055E-4
1.0E-11                  160                      6.88951088933992E-4
1.0E-11                  161                      6.937155405910562E-4
1.0E-11                  162                      6.98471562582895E-4
1.0E-11                  163                      7.032191549095109E-4
1.0E-11                  164                      7.079583175709037E-4
1.0E-11                  165                      7.126890505670711E-4
1.0E-11                  166                      7.174097631882121E-4
1.0E-11                  167                      7.221206987694526E-4
1.0E-11                  168                      7.268225453935515E-4
1.0E-11                  169                      7.315153030605127E-4
1.0E-11                  170                      7.361989717703345E-4
1.0E-11                  171                      7.408735515230162E-4
1.0E-11                  172                      7.455389620405828E-4
1.0E-11                  173                      7.501942624393921E-4
1.0E-11                  174                      7.548401896609492E-4
1.0E-11                  175                      7.594767437052529E-4
1.0E-11                  176                      7.641039245723038E-4
1.0E-11                  177                      7.687217322621012E-4
1.0E-11                  178                      7.733301667746458E-4
1.0E-11                  179                      7.779287167943379E-4
1.0E-11                  180                      7.82517174208719E-4
1.0E-11                  181                      7.870959718388388E-4
1.0E-11                  182                      7.916651096846994E-4
1.0E-11                  183                      7.962245877462988E-4
1.0E-11                  184                      8.007744060236396E-4
1.0E-11                  185                      8.053145645167193E-4
1.0E-11                  186                      8.098447513940773E-4
1.0E-11                  187                      8.143651656864844E-4
1.0E-11                  188                      8.188758300978374E-4
1.0E-11                  189                      8.23376744628136E-4
1.0E-11                  190                      8.278679092773805E-4
1.0E-11                  191                      8.323493240455685E-4
1.0E-11                  192                      8.368215562271589E-4
1.0E-11                  193                      8.412854549642412E-4
1.0E-11                  194                      8.457400839162423E-4
1.0E-11                  195                      8.50185443083158E-4
1.0E-11                  196                      8.546215324649922E-4
1.0E-11                  197                      8.590483520617426E-4
1.0E-11                  198                      8.63465901873411E-4
1.0E-11                  199                      8.67874347890898E-4
1.0E-11                  200                      8.722736288147722E-4
1.0E-11                  201                      8.766636994333755E-4
1.0E-11                  202                      8.810445597467121E-4
1.0E-11                  203                      8.854162097547784E-4
1.0E-11                  204                      8.897786494575764E-4
1.0E-11                  205                      8.941317587246628E-4
1.0E-11                  206                      8.984749902908955E-4
1.0E-11                  207                      9.028088131679952E-4
1.0E-11                  208                      9.071332273559612E-4
1.0E-11                  209                      9.114482328547941E-4
1.0E-11                  210                      9.15753829664492E-4
1.0E-11                  211                      9.200500177850539E-4
1.0E-11                  212                      9.243375378713194E-4
1.0E-11                  213                      9.286164227868593E-4
1.0E-11                  214                      9.328862440383635E-4
1.0E-11                  215                      9.371470016258299E-4
1.0E-11                  216                      9.413986955492637E-4
1.0E-11                  217                      9.456413258086634E-4
1.0E-11                  218                      9.498749121740418E-4
1.0E-11                  219                      9.541007644570766E-4
1.0E-11                  220                      9.58317907472024E-4
1.0E-11                  221                      9.625263412188887E-4
1.0E-11                  222                      9.66726065697668E-4
1.0E-11                  223                      9.709170809083637E-4
1.0E-11                  224                      9.750993868509732E-4
1.0E-11                  225                      9.792728829467402E-4
1.0E-11                  226                      9.83437492331727E-4
1.0E-11                  227                      9.875933266657545E-4
1.0E-11                  228                      9.917403859488196E-4
1.0E-11                  229                      9.958786701809233E-4
1.0E-11                  230                      0.0010000081793620677
1.0E-11                  231                      0.0010041289134922525
1.0E-11                  232                      0.0010082401879436612
1.0E-11                  233                      0.0010123423711293664
1.0E-11                  234                      0.0010164355638081612
1.0E-11                  235                      0.0010205197659800475
1.0E-11                  236                      0.0010245949776450255
1.0E-11                  237                      0.0010286611988030946
1.0E-11                  238                      0.0010327194069945608
1.0E-11                  239                      0.0010367718845879768
1.0E-11                  240                      0.0010408164143253715
1.0E-11                  241                      0.0010448529962067475
1.0E-11                  242                      0.001048881630232102
1.0E-11                  243                      0.0010529023164014368
1.0E-11                  244                      0.0010569150547147508
1.0E-11                  245                      0.0010609175613127916
1.0E-11                  246                      0.001064910338137289
1.0E-11                  247                      0.0010688942601719785
1.0E-11                  248                      0.001072869327416859
1.0E-11                  249                      0.0010768355398719327
1.0E-11                  250                      0.0010807928975371962
1.0E-11                  251                      0.0010847412895286096
1.0E-11                  252                      0.0010886797760504751
1.0E-11                  253                      0.0010926091100885945
1.0E-11                  254                      0.0010965292916429669
1.0E-11                  255                      0.0011004403207135935
1.0E-11                  256                      0.0011043421973004732
1.0E-11                  257                      0.0011082349214036088
1.0E-11                  258                      0.0011121209077961916
1.0E-11                  259                      0.0011160008614736533
1.0E-11                  260                      0.0011198729435880038
1.0E-11                  261                      0.0011237371541392498
1.0E-11                  262                      0.0011275934931273817
1.0E-11                  263                      0.0011314419605524075
1.0E-11                  264                      0.0011352825564143174
1.0E-11                  265                      0.0011391118270795393
1.0E-11                  266                      0.0011429320989786132
1.0E-11                  267                      0.001146743532818668
1.0E-11                  268                      0.0011505461285997046
1.0E-11                  269                      0.0011543398863217223
1.0E-11                  270                      0.0011581248059847247
1.0E-11                  271                      0.0011619010867098356
1.0E-11                  272                      0.0011656689779404401
1.0E-11                  273                      0.0011694281868613095
1.0E-11                  274                      0.0011731787134724486
1.0E-11                  275                      0.0011769205577738522
1.0E-11                  276                      0.001180653719765525
1.0E-11                  277                      0.0011843781994474618
1.0E-11                  278                      0.0011880976052918
1.0E-11                  279                      0.0011918104185970415
1.0E-11                  280                      0.0011955157944584104
1.0E-11                  281                      0.0011992137328759056
1.0E-11                  282                      0.0012029042338495262
1.0E-11                  283                      0.001206587297379274
1.0E-11                  284                      0.0012102623031492042
1.0E-11                  285                      0.0012139269406897136
1.0E-11                  286                      0.0012175832521836081
1.0E-11                  287                      0.0012212312376308886
1.0E-11                  288                      0.0012248708970315516
1.0E-11                  289                      0.0012285022303855997
1.0E-11                  290                      0.0012321252376930325
1.0E-11                  291                      0.0012357393960833471
1.0E-11                  292                      0.0012393447254248522
1.0E-11                  293                      0.001242941496367219
1.0E-11                  294                      0.001246529708910447
1.0E-11                  295                      0.0012501093630545392
1.0E-11                  296                      0.0012536804587994902
1.0E-11                  297                      0.0012572431017248238
1.0E-11                  298                      0.0012607998915671972
1.0E-11                  299                      0.0012643488561530037
1.0E-11                  300                      0.0012678899954822532
1.0E-11                  301                      0.0012714233095549377
1.0E-11                  302                      0.0012749487983710632
1.0E-11                  303                      0.0012784664619306227
1.0E-11                  304                      0.001281974911849678
1.0E-11                  305                      0.0012854732986173555
1.0E-11                  306                      0.0012889630074717398
1.0E-11                  307                      0.0012924440384128326
1.0E-11                  308                      0.0012959163914406336
1.0E-11                  309                      0.0012993800665551422
1.0E-11                  310                      0.0013028350637563598
1.0E-11                  311                      0.001306282278410933
1.0E-11                  312                      0.001309721191956456
1.0E-11                  313                      0.0013131516998973
1.0E-11                  314                      0.0013165738022334656
1.0E-11                  315                      0.0013199874989649528
1.0E-11                  316                      0.001323392790091765
1.0E-11                  317                      0.0013267900331337486
1.0E-11                  318                      0.0013301799293838335
1.0E-11                  319                      0.001333561766263376
1.0E-11                  320                      0.0013369355437723726
1.0E-11                  321                      0.0013403012619108232
1.0E-11                  322                      0.0013436589206787296
1.0E-11                  323                      0.0013470085200760927
1.0E-11                  324                      0.0013503493043148453
1.0E-11                  325                      0.0013536814862812503
1.0E-11                  326                      0.0013570053208911362
1.0E-11                  327                      0.0013603208081445052
1.0E-11                  328                      0.0013636279480413508
1.0E-11                  329                      0.001366926740581679
1.0E-11                  330                      0.001370217326841029
1.0E-11                  331                      0.0013735006211188186
1.0E-11                  332                      0.0013767758726013102
1.0E-11                  333                      0.001380043081288508
1.0E-11                  334                      0.0013833022471804008
1.0E-11                  335                      0.001386553370277001
1.0E-11                  336                      0.0013897964505782971
1.0E-11                  337                      0.0013930319682930877
1.0E-11                  338                      0.0013962600136190285
1.0E-11                  339                      0.001399480257819266
1.0E-11                  340                      0.0014026927008937986
1.0E-11                  341                      0.00140589734284263
1.0E-11                  342                      0.0014090941836657595
1.0E-11                  343                      0.0014122832233631859
1.0E-11                  344                      0.00141546310494131
1.0E-11                  345                      0.0014186347878841553
1.0E-11                  346                      0.0014217983015877725
1.0E-11                  347                      0.0014249536460521639
1.0E-11                  348                      0.0014281008212773249
1.0E-11                  349                      0.0014312398272632633
1.0E-11                  350                      0.0014343706347463088
1.0E-11                  351                      0.0014374932132503178
1.0E-11                  352                      0.001440607601248259
1.0E-11                  353                      0.001443713798740134
1.0E-11                  354                      0.0014468118057259414
1.0E-11                  355                      0.0014499016222056813
1.0E-11                  356                      0.00145298324817935
1.0E-11                  357                      0.0014560571093028606
1.0E-11                  358                      0.0014591230058996893
1.0E-11                  359                      0.0014621808535283734
1.0E-11                  360                      0.001465230652188909
1.0E-11                  361                      0.0014682724018812983
1.0E-11                  362                      0.0014713061026055416
1.0E-11                  363                      0.0014743315962270547
1.0E-11                  364                      0.001477348395104994
1.0E-11                  365                      0.0014803569451785096
1.0E-11                  366                      0.001483357246447602
1.0E-11                  367                      0.0014863492989122733
1.0E-11                  368                      0.001489333102572522
1.0E-11                  369                      0.0014923086574283467
1.0E-11                  370                      0.0014952758932297312
1.0E-11                  371                      0.0014982348179626295
1.0E-11                  372                      0.0015011854640571715
1.0E-11                  373                      0.0015041278315133639
1.0E-11                  374                      0.0015070619203312013
1.0E-11                  375                      0.0015099877305106849
1.0E-11                  376                      0.0015129053025769205
1.0E-11                  377                      0.001515815227118537
1.0E-11                  378                      0.0015187170469942559
1.0E-11                  379                      0.001521610762204074
1.0E-11                  380                      0.0015244963727479937
1.0E-11                  381                      0.0015273738786260138
1.0E-11                  382                      0.0015302432798381357
1.0E-11                  383                      0.0015331043682269895
1.0E-11                  384                      0.0015359570447024656
1.0E-11                  385                      0.0015388014960758577
1.0E-11                  386                      0.0015416377223471747
1.0E-11                  387                      0.0015444657235164046
1.0E-11                  388                      0.0015472854995835575
1.0E-11                  389                      0.0015500970505486296
1.0E-11                  390                      0.0015529013114508187
1.0E-11                  391                      0.001555697704603073
1.0E-11                  392                      0.0015584861477257732
1.0E-11                  393                      0.0015612666408189183
1.0E-11                  394                      0.0015640391838825114
1.0E-11                  395                      0.0015668037769165492
1.0E-11                  396                      0.0015695605625949327
1.0E-11                  397                      0.0015723097761765883
1.0E-11                  398                      0.0015750511661740455
1.0E-11                  399                      0.001577784732587319
1.0E-11                  400                      0.0015805104754164025
1.0E-11                  401                      0.0015832283946612977
1.0E-11                  402                      0.0015859384903220012
1.0E-11                  403                      0.0015886400982559178
1.0E-11                  404                      0.0015913334437316642
1.0E-11                  405                      0.0015940187224605929
1.0E-11                  406                      0.0015966959344427018
1.0E-11                  407                      0.0015993650796779903
1.0E-11                  408                      0.0016020261581664607
1.0E-11                  409                      0.001604679118172489
1.0E-11                  410                      0.0016073236942576916
1.0E-11                  411                      0.0016099601103194826
1.0E-11                  412                      0.0016125883663578656
1.0E-11                  413                      0.0016152084623728361
1.0E-11                  414                      0.0016178203983643967