% Model:              NP_reactive_flow_Different_injection_TCE_in_Low_Permeable2.mph
% Version:            COMSOL 5.2.0.166
% Date:               Jun 15 2020, 01:37
% Table:              Table 61 - np_retention_mass_lowPM (np_retention_mass_lowPM)
% lowPM_per              t (s)                    np_retention_mass_lowPM (mol/m)
1.0E-12                  0                        1.120178373560245E-13
1.0E-12                  1                        2.9256037606449963E-12
1.0E-12                  2                        -2.0716745776160074E-10
1.0E-12                  3                        9.306849330989103E-10
1.0E-12                  4                        -1.5305505994700891E-9
1.0E-12                  5                        -1.851152047835508E-8
1.0E-12                  6                        -3.0414984008619586E-8
1.0E-12                  7                        -2.4196241353567455E-9
1.0E-12                  8                        9.320115888281966E-8
1.0E-12                  9                        2.541059339842247E-7
1.0E-12                  10                       5.13401429368048E-7
1.0E-12                  11                       8.596898016036618E-7
1.0E-12                  12                       1.2860802849645561E-6
1.0E-12                  13                       1.788558691068273E-6
1.0E-12                  14                       2.3470813442698774E-6
1.0E-12                  15                       2.9630549062875823E-6
1.0E-12                  16                       3.628013928027484E-6
1.0E-12                  17                       4.328642872448218E-6
1.0E-12                  18                       5.069562304966036E-6
1.0E-12                  19                       5.846834604160422E-6
1.0E-12                  20                       6.652421406434705E-6
1.0E-12                  21                       7.488264224374101E-6
1.0E-12                  22                       8.350832691806991E-6
1.0E-12                  23                       9.236891603808051E-6
1.0E-12                  24                       1.014931288684106E-5
1.0E-12                  25                       1.1081461185052278E-5
1.0E-12                  26                       1.203325809292149E-5
1.0E-12                  27                       1.30089634850699E-5
1.0E-12                  28                       1.4003741381509237E-5
1.0E-12                  29                       1.5014726127864206E-5
1.0E-12                  30                       1.6045317985170774E-5
1.0E-12                  31                       1.709442105155927E-5
1.0E-12                  32                       1.816079192908839E-5
1.0E-12                  33                       1.9244426731891696E-5
1.0E-12                  34                       2.0345270636178973E-5
1.0E-12                  35                       2.1463436416659237E-5
1.0E-12                  36                       2.259803277482317E-5
1.0E-12                  37                       2.3748374900787854E-5
1.0E-12                  38                       2.4916664710590715E-5
1.0E-12                  39                       2.6101880845888237E-5
1.0E-12                  40                       2.7302837215060737E-5
1.0E-12                  41                       2.8522667700935414E-5
1.0E-12                  42                       2.976134016456125E-5
1.0E-12                  43                       3.101625791611932E-5
1.0E-12                  44                       3.229143182692598E-5
1.0E-12                  45                       3.358945554956089E-5
1.0E-12                  46                       3.490732160662163E-5
1.0E-12                  47                       3.6246983557393426E-5
1.0E-12                  48                       3.761146440878255E-5
1.0E-12                  49                       3.8998257765818274E-5
1.0E-12                  50                       4.040766665735308E-5
1.0E-12                  51                       4.18424372403486E-5
1.0E-12                  52                       4.329996634630669E-5
1.0E-12                  53                       4.477886080273823E-5
1.0E-12                  54                       4.628014502423304E-5
1.0E-12                  55                       4.780125491975467E-5
1.0E-12                  56                       4.9337391724120845E-5
1.0E-12                  57                       5.088677291767498E-5
1.0E-12                  58                       5.244773208238388E-5
1.0E-12                  59                       5.4013903700109746E-5
1.0E-12                  60                       5.558647078043129E-5
1.0E-12                  61                       5.7161901700981464E-5
1.0E-12                  62                       5.873816647229826E-5
1.0E-12                  63                       6.031421634814587E-5
1.0E-12                  64                       6.189092806641245E-5
1.0E-12                  65                       6.346944515707338E-5
1.0E-12                  66                       6.504821023609614E-5
1.0E-12                  67                       6.6625619833556E-5
1.0E-12                  68                       6.820733928365058E-5
1.0E-12                  69                       6.976953516604217E-5
1.0E-12                  70                       7.1332224661773E-5
1.0E-12                  71                       7.289087109183128E-5
1.0E-12                  72                       7.443955776492693E-5
1.0E-12                  73                       7.598557059809525E-5
1.0E-12                  74                       7.752523742924226E-5
1.0E-12                  75                       7.905780813300587E-5
1.0E-12                  76                       8.05849775790951E-5
1.0E-12                  77                       8.210355705381408E-5
1.0E-12                  78                       8.361435964725347E-5
1.0E-12                  79                       8.5117846244913E-5
1.0E-12                  80                       8.661495552191819E-5
1.0E-12                  81                       8.810644788175808E-5
1.0E-12                  82                       8.959169641731995E-5
1.0E-12                  83                       9.107035893450285E-5
1.0E-12                  84                       9.254213094495339E-5
1.0E-12                  85                       9.400771177600795E-5
1.0E-12                  86                       9.546857768636015E-5
1.0E-12                  87                       9.69254384083649E-5
1.0E-12                  88                       9.837936460312805E-5
1.0E-12                  89                       9.982617844887803E-5
1.0E-12                  90                       1.0126581532635764E-4
1.0E-12                  91                       1.0269947169688457E-4
1.0E-12                  92                       1.0412854806371686E-4
1.0E-12                  93                       1.055531255073172E-4
1.0E-12                  94                       1.0697285172806521E-4
1.0E-12                  95                       1.0838688721604971E-4
1.0E-12                  96                       1.0979426886666146E-4
1.0E-12                  97                       1.1119489106393684E-4
1.0E-12                  98                       1.1258991190297575E-4
1.0E-12                  99                       1.1397959077030369E-4
1.0E-12                  100                      1.1536263160426817E-4
1.0E-12                  101                      1.1673762792315223E-4
1.0E-12                  102                      1.1810379509292339E-4
1.0E-12                  103                      1.19461929423768E-4
1.0E-12                  104                      1.2081173491350061E-4
1.0E-12                  105                      1.2214928559783293E-4
1.0E-12                  106                      1.234755434966247E-4
1.0E-12                  107                      1.247902569921884E-4
1.0E-12                  108                      1.260930940574092E-4
1.0E-12                  109                      1.2738340210889963E-4
1.0E-12                  110                      1.2865968064731514E-4
1.0E-12                  111                      1.2992268596247024E-4
1.0E-12                  112                      1.3117220508621638E-4
1.0E-12                  113                      1.3240719937517194E-4
1.0E-12                  114                      1.336287630716881E-4
1.0E-12                  115                      1.3483733308053972E-4
1.0E-12                  116                      1.36032703756497E-4
1.0E-12                  117                      1.3721254484778017E-4
1.0E-12                  118                      1.3837521345503158E-4
1.0E-12                  119                      1.3952226161502361E-4
1.0E-12                  120                      1.4065480736507604E-4
1.0E-12                  121                      1.417749164774181E-4
1.0E-12                  122                      1.4288116722273683E-4
1.0E-12                  123                      1.439738416340397E-4
1.0E-12                  124                      1.4505430700344376E-4
1.0E-12                  125                      1.4612176139817143E-4
1.0E-12                  126                      1.4717626080413488E-4
1.0E-12                  127                      1.482197563476435E-4
1.0E-12                  128                      1.4925121545010967E-4
1.0E-12                  129                      1.5027063811153338E-4
1.0E-12                  130                      1.5127867508771273E-4
1.0E-12                  131                      1.5227511542129183E-4
1.0E-12                  132                      1.5325988838729525E-4
1.0E-12                  133                      1.5423399561176055E-4
1.0E-12                  134                      1.5519746335811767E-4
1.0E-12                  135                      1.5614999046483345E-4
1.0E-12                  136                      1.5709263057934997E-4
1.0E-12                  137                      1.5802599470223617E-4
1.0E-12                  138                      1.5894945155816645E-4
1.0E-12                  139                      1.598654615208175E-4
1.0E-12                  140                      1.607779403129902E-4
1.0E-12                  141                      1.6168409176117035E-4
1.0E-12                  142                      1.6258391586535822E-4
1.0E-12                  143                      1.6347741262555344E-4
1.0E-12                  144                      1.6436458204175647E-4
1.0E-12                  145                      1.6524543770483674E-4
1.0E-12                  146                      1.6612020437213392E-4
1.0E-12                  147                      1.6698871132846238E-4
1.0E-12                  148                      1.678509585738225E-4
1.0E-12                  149                      1.6870694610821387E-4
1.0E-12                  150                      1.6955667393163675E-4
1.0E-12                  151                      1.7040014204409092E-4
1.0E-12                  152                      1.7124187167851754E-4
1.0E-12                  153                      1.7208044866940384E-4
1.0E-12                  154                      1.7291449935660783E-4
1.0E-12                  155                      1.7374402374012964E-4
1.0E-12                  156                      1.745690218199693E-4
1.0E-12                  157                      1.753894935961264E-4
1.0E-12                  158                      1.7620700518806016E-4
1.0E-12                  159                      1.7702299839636026E-4
1.0E-12                  160                      1.7783558737369926E-4
1.0E-12                  161                      1.7864477212007734E-4
1.0E-12                  162                      1.7945055263549455E-4
1.0E-12                  163                      1.8025292891995067E-4
1.0E-12                  164                      1.8105225146671446E-4
1.0E-12                  165                      1.8185237957678448E-4
1.0E-12                  166                      1.8265031885683077E-4
1.0E-12                  167                      1.8344606930685356E-4
1.0E-12                  168                      1.842396309268523E-4
1.0E-12                  169                      1.8503100371682725E-4
1.0E-12                  170                      1.858201876767785E-4
1.0E-12                  171                      1.866093516285083E-4
1.0E-12                  172                      1.873976963025587E-4
1.0E-12                  173                      1.881846512825214E-4
1.0E-12                  174                      1.8897021656839587E-4
1.0E-12                  175                      1.8975439216018251E-4
1.0E-12                  176                      1.905371780578811E-4
1.0E-12                  177                      1.9131935612702987E-4
1.0E-12                  178                      1.9210151204985908E-4
1.0E-12                  179                      1.9288280208944018E-4
1.0E-12                  180                      1.9366322624577353E-4
1.0E-12                  181                      1.9444278451885902E-4
1.0E-12                  182                      1.9522147690869665E-4
1.0E-12                  183                      1.9599983221715568E-4
1.0E-12                  184                      1.9678210018579667E-4
1.0E-12                  185                      1.975649066725406E-4
1.0E-12                  186                      1.9834825167738728E-4
1.0E-12                  187                      1.9913213520033658E-4
1.0E-12                  188                      1.9991655724138863E-4
1.0E-12                  189                      2.0070151780054383E-4
1.0E-12                  190                      2.0148701687780122E-4
1.0E-12                  191                      2.0227305447316195E-4
1.0E-12                  192                      2.0305963058662513E-4
1.0E-12                  193                      2.0384674521819107E-4
1.0E-12                  194                      2.046343983678599E-4
1.0E-12                  195                      2.054225900356315E-4
1.0E-12                  196                      2.0620927957791787E-4
1.0E-12                  197                      2.0699370237109546E-4
1.0E-12                  198                      2.0777799918335576E-4
1.0E-12                  199                      2.0856217001469847E-4
1.0E-12                  200                      2.0934621486512397E-4
1.0E-12                  201                      2.101301337346323E-4
1.0E-12                  202                      2.1091392662322337E-4
1.0E-12                  203                      2.1169759353089685E-4
1.0E-12                  204                      2.1248113445765328E-4
1.0E-12                  205                      2.1326454940349214E-4
1.0E-12                  206                      2.1404783836841384E-4
1.0E-12                  207                      2.1483100135241825E-4
1.0E-12                  208                      2.156140383555054E-4
1.0E-12                  209                      2.163973595634902E-4
1.0E-12                  210                      2.171807127082589E-4
1.0E-12                  211                      2.1796401419319297E-4
1.0E-12                  212                      2.187472640182929E-4
1.0E-12                  213                      2.195304621835581E-4
1.0E-12                  214                      2.2031360868898862E-4
1.0E-12                  215                      2.2109670353458492E-4
1.0E-12                  216                      2.218797467203464E-4
1.0E-12                  217                      2.226627382462735E-4
1.0E-12                  218                      2.2344567811236602E-4
1.0E-12                  219                      2.242285663186241E-4
1.0E-12                  220                      2.2501140286504748E-4
1.0E-12                  221                      2.2579397608132952E-4
1.0E-12                  222                      2.2657535764434536E-4
1.0E-12                  223                      2.2735649432126188E-4
1.0E-12                  224                      2.281373861120779E-4
1.0E-12                  225                      2.2891803301679456E-4
1.0E-12                  226                      2.2969843503541104E-4
1.0E-12                  227                      2.3047859216792765E-4
1.0E-12                  228                      2.3125850441434441E-4
1.0E-12                  229                      2.3203817177466123E-4
1.0E-12                  230                      2.3281759424887837E-4
1.0E-12                  231                      2.3359677183699512E-4
1.0E-12                  232                      2.3437570453901252E-4
1.0E-12                  233                      2.351543923549297E-4
1.0E-12                  234                      2.359360979019395E-4
1.0E-12                  235                      2.3672126542694948E-4
1.0E-12                  236                      2.3750713673754091E-4
1.0E-12                  237                      2.3829371183371387E-4
1.0E-12                  238                      2.3908099071546861E-4
1.0E-12                  239                      2.3986897338280455E-4
1.0E-12                  240                      2.4065765983572235E-4
1.0E-12                  241                      2.4144705007422124E-4
1.0E-12                  242                      2.4223714409830202E-4
1.0E-12                  243                      2.430279419079641E-4
1.0E-12                  244                      2.4381944350320816E-4
1.0E-12                  245                      2.446116488840334E-4
1.0E-12                  246                      2.454045580504402E-4
1.0E-12                  247                      2.4619817100242873E-4
1.0E-12                  248                      2.469924877399985E-4
1.0E-12                  249                      2.477875082631497E-4
1.0E-12                  250                      2.4858323257188257E-4
1.0E-12                  251                      2.49379660666197E-4
1.0E-12                  252                      2.5017679254609327E-4
1.0E-12                  253                      2.5097462821157087E-4
1.0E-12                  254                      2.517731676626298E-4
1.0E-12                  255                      2.525724108992704E-4
1.0E-12                  256                      2.5337235792149244E-4
1.0E-12                  257                      2.541730087292961E-4
1.0E-12                  258                      2.549743633226812E-4
1.0E-12                  259                      2.557738837417944E-4
1.0E-12                  260                      2.565648191425997E-4
1.0E-12                  261                      2.5735557398999097E-4
1.0E-12                  262                      2.581461482839686E-4
1.0E-12                  263                      2.5893654202453233E-4
1.0E-12                  264                      2.597267552116822E-4
1.0E-12                  265                      2.605167878454184E-4
1.0E-12                  266                      2.613066399257402E-4
1.0E-12                  267                      2.620963114526486E-4
1.0E-12                  268                      2.6288580242614287E-4
1.0E-12                  269                      2.636751128462238E-4
1.0E-12                  270                      2.6446424271289043E-4
1.0E-12                  271                      2.6525319202614305E-4
1.0E-12                  272                      2.66041960785982E-4
1.0E-12                  273                      2.668305489924072E-4
1.0E-12                  274                      2.676189566454185E-4
1.0E-12                  275                      2.684071837450164E-4
1.0E-12                  276                      2.6919523029119937E-4
1.0E-12                  277                      2.6998309628396947E-4
1.0E-12                  278                      2.7077078172332494E-4
1.0E-12                  279                      2.715582866092671E-4
1.0E-12                  280                      2.7234561094179526E-4
1.0E-12                  281                      2.731327547209096E-4
1.0E-12                  282                      2.739197179466098E-4
1.0E-12                  283                      2.747065006188965E-4
1.0E-12                  284                      2.754931027377694E-4
1.0E-12                  285                      2.7627730206209995E-4
1.0E-12                  286                      2.770609711723101E-4
1.0E-12                  287                      2.778442770166213E-4
1.0E-12                  288                      2.7862721959503393E-4
1.0E-12                  289                      2.7940979890754856E-4
1.0E-12                  290                      2.8019201495416406E-4
1.0E-12                  291                      2.809738677348824E-4
1.0E-12                  292                      2.817553572497018E-4
1.0E-12                  293                      2.8253648349862244E-4
1.0E-12                  294                      2.833172464816453E-4
1.0E-12                  295                      2.8409764619876944E-4
1.0E-12                  296                      2.848776826499949E-4
1.0E-12                  297                      2.856573558353225E-4
1.0E-12                  298                      2.864366657547515E-4
1.0E-12                  299                      2.8721561240828213E-4
1.0E-12                  300                      2.879941957959144E-4
1.0E-12                  301                      2.8877241591764805E-4
1.0E-12                  302                      2.895502727734836E-4
1.0E-12                  303                      2.903277663634206E-4
1.0E-12                  304                      2.9110489668745935E-4
1.0E-12                  305                      2.918816637455997E-4
1.0E-12                  306                      2.9265806753784153E-4
1.0E-12                  307                      2.934341080641852E-4
1.0E-12                  308                      2.942097853246303E-4
1.0E-12                  309                      2.949850993191772E-4
1.0E-12                  310                      2.9575996833126753E-4
1.0E-12                  311                      2.96534417976549E-4
1.0E-12                  312                      2.97308494353855E-4
1.0E-12                  313                      2.980821974631844E-4
1.0E-12                  314                      2.9885552730453846E-4
1.0E-12                  315                      2.996284838779163E-4
1.0E-12                  316                      3.004010671833181E-4
1.0E-12                  317                      3.011732772207443E-4
1.0E-12                  318                      3.019451139901943E-4
1.0E-12                  319                      3.0271657749166855E-4
1.0E-12                  320                      3.0348766772516646E-4
1.0E-12                  321                      3.0425838469068866E-4
1.0E-12                  322                      3.050287283882351E-4
1.0E-12                  323                      3.0579869881780476E-4
1.0E-12                  324                      3.065682959793991E-4
1.0E-12                  325                      3.073375198730179E-4
1.0E-12                  326                      3.0810637049866034E-4
1.0E-12                  327                      3.088748478563269E-4
1.0E-12                  328                      3.096429519460175E-4
1.0E-12                  329                      3.104106827677319E-4
1.0E-12                  330                      3.111780403214709E-4
1.0E-12                  331                      3.1194502460723367E-4
1.0E-12                  332                      3.127116356250205E-4
1.0E-12                  333                      3.134778733748314E-4
1.0E-12                  334                      3.142437378566659E-4
1.0E-12                  335                      3.1500960205294113E-4
1.0E-12                  336                      3.157758987577439E-4
1.0E-12                  337                      3.16541909629576E-4
1.0E-12                  338                      3.173076346684385E-4
1.0E-12                  339                      3.180730738743297E-4
1.0E-12                  340                      3.1883822724725096E-4
1.0E-12                  341                      3.196030947872012E-4
1.0E-12                  342                      3.203676764941814E-4
1.0E-12                  343                      3.2113197236819096E-4
1.0E-12                  344                      3.2189598240923046E-4
1.0E-12                  345                      3.2265970661729895E-4
1.0E-12                  346                      3.2342314499239725E-4
1.0E-12                  347                      3.2418629753452514E-4
1.0E-12                  348                      3.2494916424368305E-4
1.0E-12                  349                      3.2571174511986984E-4
1.0E-12                  350                      3.264740401630865E-4
1.0E-12                  351                      3.272360493733324E-4
1.0E-12                  352                      3.2799777275060836E-4
1.0E-12                  353                      3.287592102949137E-4
1.0E-12                  354                      3.295203620062486E-4
1.0E-12                  355                      3.302812278846133E-4
1.0E-12                  356                      3.31041807930007E-4
1.0E-12                  357                      3.318021021424309E-4
1.0E-12                  358                      3.325621105218836E-4
1.0E-12                  359                      3.333218330683665E-4
1.0E-12                  360                      3.3408117717237016E-4
1.0E-12                  361                      3.3483761537328157E-4
1.0E-12                  362                      3.3559356198898597E-4
1.0E-12                  363                      3.36349017019484E-4
1.0E-12                  364                      3.371039804647753E-4
1.0E-12                  365                      3.378584523248604E-4
1.0E-12                  366                      3.3861243259973865E-4
1.0E-12                  367                      3.3936592128941054E-4
1.0E-12                  368                      3.401189183938756E-4
1.0E-12                  369                      3.408714239131335E-4
1.0E-12                  370                      3.416234378471856E-4
1.0E-12                  371                      3.42374960196031E-4
1.0E-12                  372                      3.4312599095966936E-4
1.0E-12                  373                      3.438765301381016E-4
1.0E-12                  374                      3.44626577731327E-4
1.0E-12                  375                      3.4537613373934587E-4
1.0E-12                  376                      3.4612519816215793E-4
1.0E-12                  377                      3.4687377099976385E-4
1.0E-12                  378                      3.476218522521626E-4
1.0E-12                  379                      3.483694419193552E-4
1.0E-12                  380                      3.4911654000134107E-4
1.0E-12                  381                      3.4986314649812E-4
1.0E-12                  382                      3.506092614096925E-4
1.0E-12                  383                      3.513548847360587E-4
1.0E-12                  384                      3.5210001647721797E-4
1.0E-12                  385                      3.528446566331714E-4
1.0E-12                  386                      3.5358980255007476E-4
1.0E-12                  387                      3.543349007955816E-4
1.0E-12                  388                      3.550796112417222E-4
1.0E-12                  389                      3.5582393388849633E-4
1.0E-12                  390                      3.565678687359033E-4
1.0E-12                  391                      3.573114157839441E-4
1.0E-12                  392                      3.5805457503261735E-4
1.0E-12                  393                      3.587973464819253E-4
1.0E-12                  394                      3.5953973013186564E-4
1.0E-12                  395                      3.602817259824395E-4
1.0E-12                  396                      3.61023334033647E-4
1.0E-12                  397                      3.6176455428548767E-4
1.0E-12                  398                      3.6250538673796186E-4
1.0E-12                  399                      3.6324583139106905E-4
1.0E-12                  400                      3.639858882448099E-4
1.0E-12                  401                      3.647255572991842E-4
1.0E-12                  402                      3.654648385541915E-4
1.0E-12                  403                      3.662037320098325E-4
1.0E-12                  404                      3.669422376661064E-4
1.0E-12                  405                      3.6768035552301435E-4
1.0E-12                  406                      3.6841808558055525E-4
1.0E-12                  407                      3.6915542783873E-4
1.0E-12                  408                      3.698923822975373E-4
1.0E-12                  409                      3.706289489569781E-4
1.0E-12                  410                      3.71365127817053E-4
1.0E-12                  411                      3.721055554657711E-4
1.0E-12                  412                      3.72852064742414E-4
1.0E-12                  413                      3.735990034678936E-4
1.0E-12                  414                      3.743463716422091E-4