% Model:              NP_reactive_flow_Different_injection_TCE_in_Low_Permeable2.mph
% Version:            COMSOL 5.2.0.166
% Date:               Jun 15 2020, 01:37
% Table:              Table 61 - np_retention_mass_lowPM (np_retention_mass_lowPM)
% lowPM_per              t (s)                    np_retention_mass_lowPM (mol/m)
1.0E-14                  0                        1.1201710274618988E-13
1.0E-14                  1                        2.8892754049373726E-12
1.0E-14                  2                        -2.005070510051885E-10
1.0E-14                  3                        9.03578262638572E-10
1.0E-14                  4                        -1.680715488111966E-9
1.0E-14                  5                        -1.85924690455101E-8
1.0E-14                  6                        -2.996394891028624E-8
1.0E-14                  7                        -3.4757422472175718E-9
1.0E-14                  8                        8.893634387216768E-8
1.0E-14                  9                        2.433620307407386E-7
1.0E-14                  10                       4.906116849287727E-7
1.0E-14                  11                       8.205555039344146E-7
1.0E-14                  12                       1.2267328121580183E-6
1.0E-14                  13                       1.7034964734003343E-6
1.0E-14                  14                       2.230372545926642E-6
1.0E-14                  15                       2.8079226145872377E-6
1.0E-14                  16                       3.4289912645625715E-6
1.0E-14                  17                       4.081299376390087E-6
1.0E-14                  18                       4.7668501884220945E-6
1.0E-14                  19                       5.4794473389686796E-6
1.0E-14                  20                       6.21437702102929E-6
1.0E-14                  21                       6.973703334304203E-6
1.0E-14                  22                       7.750743465732646E-6
1.0E-14                  23                       8.54101797859012E-6
1.0E-14                  24                       9.350315388386206E-6
1.0E-14                  25                       1.0172966541787505E-5
1.0E-14                  26                       1.1007761252580337E-5
1.0E-14                  27                       1.185257993425324E-5
1.0E-14                  28                       1.2707338356031778E-5
1.0E-14                  29                       1.3571400535601225E-5
1.0E-14                  30                       1.4446146158977391E-5
1.0E-14                  31                       1.5330246723393083E-5
1.0E-14                  32                       1.622148581913055E-5
1.0E-14                  33                       1.7121229018848442E-5
1.0E-14                  34                       1.802969925306522E-5
1.0E-14                  35                       1.894758314602326E-5
1.0E-14                  36                       1.9872037035876873E-5
1.0E-14                  37                       2.0801096914568486E-5
1.0E-14                  38                       2.174068978163945E-5
1.0E-14                  39                       2.2688459639594422E-5
1.0E-14                  40                       2.3642086759602823E-5
1.0E-14                  41                       2.4605519234048633E-5
1.0E-14                  42                       2.557882686121044E-5
1.0E-14                  43                       2.6560017567732733E-5
1.0E-14                  44                       2.755259233815746E-5
1.0E-14                  45                       2.8558761170515967E-5
1.0E-14                  46                       2.9575024773423846E-5
1.0E-14                  47                       3.0603529728344866E-5
1.0E-14                  48                       3.164725607276166E-5
1.0E-14                  49                       3.270520168298324E-5
1.0E-14                  50                       3.3777472752606395E-5
1.0E-14                  51                       3.486459291028414E-5
1.0E-14                  52                       3.596557213840413E-5
1.0E-14                  53                       3.7079826920002404E-5
1.0E-14                  54                       3.820809739526301E-5
1.0E-14                  55                       3.934857758098481E-5
1.0E-14                  56                       4.049812269964833E-5
1.0E-14                  57                       4.165301066486725E-5
1.0E-14                  58                       4.281387561763947E-5
1.0E-14                  59                       4.398025007196308E-5
1.0E-14                  60                       4.514853765697659E-5
1.0E-14                  61                       4.6317207937187126E-5
1.0E-14                  62                       4.748763101370824E-5
1.0E-14                  63                       4.8662389328839197E-5
1.0E-14                  64                       4.984069149684363E-5
1.0E-14                  65                       5.102155542893823E-5
1.0E-14                  66                       5.220366305250022E-5
1.0E-14                  67                       5.339176882994682E-5
1.0E-14                  68                       5.4568299158687565E-5
1.0E-14                  69                       5.5737400466001985E-5
1.0E-14                  70                       5.690640950143129E-5
1.0E-14                  71                       5.806968900191267E-5
1.0E-14                  72                       5.922795820281097E-5
1.0E-14                  73                       6.038404290778952E-5
1.0E-14                  74                       6.153759986193664E-5
1.0E-14                  75                       6.268623633687398E-5
1.0E-14                  76                       6.383020280254902E-5
1.0E-14                  77                       6.496965060176694E-5
1.0E-14                  78                       6.610446132681086E-5
1.0E-14                  79                       6.723405260885193E-5
1.0E-14                  80                       6.835885259439238E-5
1.0E-14                  81                       6.948490118300923E-5
1.0E-14                  82                       7.060733360116415E-5
1.0E-14                  83                       7.17259042345569E-5
1.0E-14                  84                       7.284080618541271E-5
1.0E-14                  85                       7.395226695311737E-5
1.0E-14                  86                       7.50606835153876E-5
1.0E-14                  87                       7.616684917868969E-5
1.0E-14                  88                       7.727153958064508E-5
1.0E-14                  89                       7.837448924373803E-5
1.0E-14                  90                       7.94749027393211E-5
1.0E-14                  91                       8.057197705718502E-5
1.0E-14                  92                       8.16659499048631E-5
1.0E-14                  93                       8.275734891821177E-5
1.0E-14                  94                       8.38458213917034E-5
1.0E-14                  95                       8.493099276875032E-5
1.0E-14                  96                       8.601287805786564E-5
1.0E-14                  97                       8.709224100873245E-5
1.0E-14                  98                       8.816424156748178E-5
1.0E-14                  99                       8.923036856427178E-5
1.0E-14                  100                      9.028975041238605E-5
1.0E-14                  101                      9.134120466997597E-5
1.0E-14                  102                      9.238378339328436E-5
1.0E-14                  103                      9.341764800867273E-5
1.0E-14                  104                      9.444156103507555E-5
1.0E-14                  105                      9.545470719522419E-5
1.0E-14                  106                      9.645614080874812E-5
1.0E-14                  107                      9.744487372837326E-5
1.0E-14                  108                      9.842049537831204E-5
1.0E-14                  109                      9.938401577476177E-5
1.0E-14                  110                      1.0033560717122628E-4
1.0E-14                  111                      1.0127347034531661E-4
1.0E-14                  112                      1.0219362657166727E-4
1.0E-14                  113                      1.0309824035295841E-4
1.0E-14                  114                      1.0398770599364858E-4
1.0E-14                  115                      1.048619750970332E-4
1.0E-14                  116                      1.0572089730550592E-4
1.0E-14                  117                      1.0656421978598414E-4
1.0E-14                  118                      1.0739207579351748E-4
1.0E-14                  119                      1.0820484250029733E-4
1.0E-14                  120                      1.0900250205834658E-4
1.0E-14                  121                      1.0978518223613813E-4
1.0E-14                  122                      1.1055354648567324E-4
1.0E-14                  123                      1.1130725507264246E-4
1.0E-14                  124                      1.1204719547766303E-4
1.0E-14                  125                      1.1277339858758671E-4
1.0E-14                  126                      1.1348631464067685E-4
1.0E-14                  127                      1.1418860370238059E-4
1.0E-14                  128                      1.1487893922416319E-4
1.0E-14                  129                      1.155573212060245E-4
1.0E-14                  130                      1.1622374964796457E-4
1.0E-14                  131                      1.1687825069853954E-4
1.0E-14                  132                      1.17520929910878E-4
1.0E-14                  133                      1.1815170459249686E-4
1.0E-14                  134                      1.1877057474339601E-4
1.0E-14                  135                      1.1937754036357544E-4
1.0E-14                  136                      1.1997340390803102E-4
1.0E-14                  137                      1.2056235831559446E-4
1.0E-14                  138                      1.2114122762924213E-4
1.0E-14                  139                      1.2171001184897415E-4
1.0E-14                  140                      1.2226871097479057E-4
1.0E-14                  141                      1.228178524752928E-4
1.0E-14                  142                      1.2336113608421952E-4
1.0E-14                  143                      1.23895842866561E-4
1.0E-14                  144                      1.2442197282231735E-4
1.0E-14                  145                      1.249395259514885E-4
1.0E-14                  146                      1.2544893528567463E-4
1.0E-14                  147                      1.259545369159871E-4
1.0E-14                  148                      1.2645323004223033E-4
1.0E-14                  149                      1.269450146644041E-4
1.0E-14                  150                      1.2742989078250852E-4
1.0E-14                  151                      1.2790805309802127E-4
1.0E-14                  152                      1.283826324098207E-4
1.0E-14                  153                      1.2885144466401912E-4
1.0E-14                  154                      1.293144898606165E-4
1.0E-14                  155                      1.2977176799961295E-4
1.0E-14                  156                      1.302233592791758E-4
1.0E-14                  157                      1.306720587403533E-4
1.0E-14                  158                      1.3111596021225162E-4
1.0E-14                  159                      1.3155506369487102E-4
1.0E-14                  160                      1.319893691882113E-4
1.0E-14                  161                      1.324188766922724E-4
1.0E-14                  162                      1.3284582435218036E-4
1.0E-14                  163                      1.332687200689541E-4
1.0E-14                  164                      1.3368756095327402E-4
1.0E-14                  165                      1.3410234700514E-4
1.0E-14                  166                      1.345130782245521E-4
1.0E-14                  167                      1.3492343408869002E-4
1.0E-14                  168                      1.3533112111876512E-4
1.0E-14                  169                      1.3573602561761772E-4
1.0E-14                  170                      1.3613814758524814E-4
1.0E-14                  171                      1.3653748702165607E-4
1.0E-14                  172                      1.3693404392684164E-4
1.0E-14                  173                      1.3732781830080493E-4
1.0E-14                  174                      1.3771881014354586E-4
1.0E-14                  175                      1.3810701945506443E-4
1.0E-14                  176                      1.3849244623536064E-4
1.0E-14                  177                      1.3887724975477066E-4
1.0E-14                  178                      1.392599386320201E-4
1.0E-14                  179                      1.3964028465848546E-4
1.0E-14                  180                      1.4001828783416677E-4
1.0E-14                  181                      1.4039394815906403E-4
1.0E-14                  182                      1.4076726563317716E-4
1.0E-14                  183                      1.4113824025650628E-4
1.0E-14                  184                      1.4150687202905133E-4
1.0E-14                  185                      1.418731609508123E-4
1.0E-14                  186                      1.4223710702178914E-4
1.0E-14                  187                      1.4260239239472365E-4
1.0E-14                  188                      1.4296684942368781E-4
1.0E-14                  189                      1.43329780479971E-4
1.0E-14                  190                      1.4369118556357334E-4
1.0E-14                  191                      1.4405106467449462E-4
1.0E-14                  192                      1.4440941781273506E-4
1.0E-14                  193                      1.4476624497829452E-4
1.0E-14                  194                      1.4512154617117308E-4
1.0E-14                  195                      1.4547532139137068E-4
1.0E-14                  196                      1.4582757063888734E-4
1.0E-14                  197                      1.461803221556815E-4
1.0E-14                  198                      1.4653262593737235E-4
1.0E-14                  199                      1.4688389737220226E-4
1.0E-14                  200                      1.472341364601714E-4
1.0E-14                  201                      1.475833432012797E-4
1.0E-14                  202                      1.479315175955272E-4
1.0E-14                  203                      1.4827865964291397E-4
1.0E-14                  204                      1.4862476934343982E-4
1.0E-14                  205                      1.489698466971048E-4
1.0E-14                  206                      1.493138917039091E-4
1.0E-14                  207                      1.4965867986727234E-4
1.0E-14                  208                      1.5000363531460142E-4
1.0E-14                  209                      1.5034803636638667E-4
1.0E-14                  210                      1.5069188302262794E-4
1.0E-14                  211                      1.5103517528332555E-4
1.0E-14                  212                      1.513779131484792E-4
1.0E-14                  213                      1.51720096618089E-4
1.0E-14                  214                      1.5206172569215502E-4
1.0E-14                  215                      1.5240280037067717E-4
1.0E-14                  216                      1.527433206536555E-4
1.0E-14                  217                      1.5308328654108997E-4
1.0E-14                  218                      1.5342269803298055E-4
1.0E-14                  219                      1.5376155512932728E-4
1.0E-14                  220                      1.5409985783013016E-4
1.0E-14                  221                      1.5443760613538928E-4
1.0E-14                  222                      1.547748000451046E-4
1.0E-14                  223                      1.5511143955927593E-4
1.0E-14                  224                      1.554475246779035E-4
1.0E-14                  225                      1.5578305540098718E-4
1.0E-14                  226                      1.5611803172852696E-4
1.0E-14                  227                      1.5645220364315164E-4
1.0E-14                  228                      1.5678558573948884E-4
1.0E-14                  229                      1.571183697939567E-4
1.0E-14                  230                      1.5745055580655503E-4
1.0E-14                  231                      1.577821437772839E-4
1.0E-14                  232                      1.5811313370614342E-4
1.0E-14                  233                      1.5844352559313333E-4
1.0E-14                  234                      1.5877331943825392E-4
1.0E-14                  235                      1.5910251524150506E-4
1.0E-14                  236                      1.5943111300288664E-4
1.0E-14                  237                      1.5975911272239895E-4
1.0E-14                  238                      1.6008651440004164E-4
1.0E-14                  239                      1.6041331803581506E-4
1.0E-14                  240                      1.607395236297189E-4
1.0E-14                  241                      1.610651311817532E-4
1.0E-14                  242                      1.6139014069191824E-4
1.0E-14                  243                      1.617145521602137E-4
1.0E-14                  244                      1.6203836558663977E-4
1.0E-14                  245                      1.623615809711964E-4
1.0E-14                  246                      1.626841983138835E-4
1.0E-14                  247                      1.6300651177219812E-4
1.0E-14                  248                      1.6332868732163742E-4
1.0E-14                  249                      1.6365033349292462E-4
1.0E-14                  250                      1.6397145028605986E-4
1.0E-14                  251                      1.6429203770104304E-4
1.0E-14                  252                      1.6461209573787392E-4
1.0E-14                  253                      1.6493162439655285E-4
1.0E-14                  254                      1.652506236770796E-4
1.0E-14                  255                      1.655690935794545E-4
1.0E-14                  256                      1.6588703410367722E-4
1.0E-14                  257                      1.6620444524974773E-4
1.0E-14                  258                      1.665213270176663E-4
1.0E-14                  259                      1.6683767940743269E-4
1.0E-14                  260                      1.6715350241904714E-4
1.0E-14                  261                      1.674687960525094E-4
1.0E-14                  262                      1.6778356030781963E-4
1.0E-14                  263                      1.6809779518497781E-4
1.0E-14                  264                      1.6841150068398392E-4
1.0E-14                  265                      1.68724676804838E-4
1.0E-14                  266                      1.6903732354753984E-4
1.0E-14                  267                      1.6934974267385387E-4
1.0E-14                  268                      1.6966247587903854E-4
1.0E-14                  269                      1.699747852713733E-4
1.0E-14                  270                      1.7028667085085806E-4
1.0E-14                  271                      1.7059813261749296E-4
1.0E-14                  272                      1.7090917057127787E-4
1.0E-14                  273                      1.7121978471221303E-4
1.0E-14                  274                      1.71529975040298E-4
1.0E-14                  275                      1.7183974155553325E-4
1.0E-14                  276                      1.7214908425791856E-4
1.0E-14                  277                      1.7245800314745374E-4
1.0E-14                  278                      1.7276649822413914E-4
1.0E-14                  279                      1.730745694879745E-4
1.0E-14                  280                      1.7338221693895993E-4
1.0E-14                  281                      1.7368944057709557E-4
1.0E-14                  282                      1.7399624040238115E-4
1.0E-14                  283                      1.743026164148169E-4
1.0E-14                  284                      1.746085686144026E-4
1.0E-14                  285                      1.7491409700113848E-4
1.0E-14                  286                      1.7521920157502442E-4
1.0E-14                  287                      1.7552398598821354E-4
1.0E-14                  288                      1.7582900771881836E-4
1.0E-14                  289                      1.7613367703420214E-4
1.0E-14                  290                      1.7643799393436493E-4
1.0E-14                  291                      1.7674195841930665E-4
1.0E-14                  292                      1.770455704890274E-4
1.0E-14                  293                      1.773488301435272E-4
1.0E-14                  294                      1.7765173738280607E-4
1.0E-14                  295                      1.7795429220686387E-4
1.0E-14                  296                      1.7825649461570073E-4
1.0E-14                  297                      1.7855834460931655E-4
1.0E-14                  298                      1.7885984218771135E-4
1.0E-14                  299                      1.7916098735088525E-4
1.0E-14                  300                      1.7946178009883802E-4
1.0E-14                  301                      1.7976222043156997E-4
1.0E-14                  302                      1.800623083490808E-4
1.0E-14                  303                      1.8036204385137088E-4
1.0E-14                  304                      1.8066142693843964E-4
1.0E-14                  305                      1.809604576102877E-4
1.0E-14                  306                      1.8125913586691453E-4
1.0E-14                  307                      1.815574617083205E-4
1.0E-14                  308                      1.8185543513450536E-4
1.0E-14                  309                      1.8215305614546938E-4
1.0E-14                  310                      1.8245032474121234E-4
1.0E-14                  311                      1.827472409217343E-4
1.0E-14                  312                      1.830438046870353E-4
1.0E-14                  313                      1.833400160371154E-4
1.0E-14                  314                      1.836358749719744E-4
1.0E-14                  315                      1.8393138149161247E-4
1.0E-14                  316                      1.8422653559602945E-4
1.0E-14                  317                      1.845213372852254E-4
1.0E-14                  318                      1.8481578655920054E-4
1.0E-14                  319                      1.851098834179547E-4
1.0E-14                  320                      1.8540362786148768E-4
1.0E-14                  321                      1.856970198897998E-4
1.0E-14                  322                      1.8599005950289092E-4
1.0E-14                  323                      1.8628274670076097E-4
1.0E-14                  324                      1.8657508148341016E-4
1.0E-14                  325                      1.8686706385083828E-4
1.0E-14                  326                      1.871586938030455E-4
1.0E-14                  327                      1.8744997134003164E-4
1.0E-14                  328                      1.8773968384242791E-4
1.0E-14                  329                      1.8802879853046747E-4
1.0E-14                  330                      1.8831749300841935E-4
1.0E-14                  331                      1.886057672762837E-4
1.0E-14                  332                      1.888936213340603E-4
1.0E-14                  333                      1.8918105518174932E-4
1.0E-14                  334                      1.894680688193507E-4
1.0E-14                  335                      1.897546622468644E-4
1.0E-14                  336                      1.900408354642904E-4
1.0E-14                  337                      1.903265884716288E-4
1.0E-14                  338                      1.9061192126887947E-4
1.0E-14                  339                      1.9089683385604278E-4
1.0E-14                  340                      1.911813262331181E-4
1.0E-14                  341                      1.914653984001059E-4
1.0E-14                  342                      1.9174905035700617E-4
1.0E-14                  343                      1.9203228210381862E-4
1.0E-14                  344                      1.9231509364054346E-4
1.0E-14                  345                      1.925974849671807E-4
1.0E-14                  346                      1.9287945608373037E-4
1.0E-14                  347                      1.931610069901923E-4
1.0E-14                  348                      1.9344213768656654E-4
1.0E-14                  349                      1.937228481728532E-4
1.0E-14                  350                      1.9400313844905207E-4
1.0E-14                  351                      1.9428300851516352E-4
1.0E-14                  352                      1.9456245837118707E-4
1.0E-14                  353                      1.9484148801712325E-4
1.0E-14                  354                      1.9512009745297168E-4
1.0E-14                  355                      1.953982866787325E-4
1.0E-14                  356                      1.956760556944055E-4
1.0E-14                  357                      1.9595340449999097E-4
1.0E-14                  358                      1.962303330954887E-4
1.0E-14                  359                      1.965068414808991E-4
1.0E-14                  360                      1.967829296562214E-4
1.0E-14                  361                      1.9705859762145635E-4
1.0E-14                  362                      1.9733384537660358E-4
1.0E-14                  363                      1.9760867292166318E-4
1.0E-14                  364                      1.9788308025663515E-4
1.0E-14                  365                      1.9815706738151938E-4
1.0E-14                  366                      1.9843063429631603E-4
1.0E-14                  367                      1.9870378100102505E-4
1.0E-14                  368                      1.9897653595314836E-4
1.0E-14                  369                      1.9924889186701098E-4
1.0E-14                  370                      1.9952082990819394E-4
1.0E-14                  371                      1.9979235007669733E-4
1.0E-14                  372                      2.0006345237252063E-4
1.0E-14                  373                      2.0033413679566446E-4
1.0E-14                  374                      2.0060440334612834E-4
1.0E-14                  375                      2.0087425202391243E-4
1.0E-14                  376                      2.011436828290169E-4
1.0E-14                  377                      2.0141269576144145E-4
1.0E-14                  378                      2.0168129082118636E-4
1.0E-14                  379                      2.019494680082515E-4
1.0E-14                  380                      2.022172273226368E-4
1.0E-14                  381                      2.024845687643425E-4
1.0E-14                  382                      2.0275149233336826E-4
1.0E-14                  383                      2.030179980297143E-4
1.0E-14                  384                      2.0328408585338058E-4
1.0E-14                  385                      2.035497558043671E-4
1.0E-14                  386                      2.0381500788267388E-4
1.0E-14                  387                      2.0407984208830086E-4
1.0E-14                  388                      2.0434425842124813E-4
1.0E-14                  389                      2.0460825688151552E-4
1.0E-14                  390                      2.048718374691032E-4
1.0E-14                  391                      2.0513500018401112E-4
1.0E-14                  392                      2.053977450262393E-4
1.0E-14                  393                      2.0566007199578773E-4
1.0E-14                  394                      2.0592198109265633E-4
1.0E-14                  395                      2.0618347231684511E-4
1.0E-14                  396                      2.0644454566835438E-4
1.0E-14                  397                      2.0670520114718371E-4
1.0E-14                  398                      2.0696543875333323E-4
1.0E-14                  399                      2.0722525848680304E-4
1.0E-14                  400                      2.074846603475931E-4
1.0E-14                  401                      2.0774364433570337E-4
1.0E-14                  402                      2.0800221045113386E-4
1.0E-14                  403                      2.0826035869388464E-4
1.0E-14                  404                      2.0851808906395552E-4
1.0E-14                  405                      2.0877540156134686E-4
1.0E-14                  406                      2.0903229618605826E-4
1.0E-14                  407                      2.092887729380899E-4
1.0E-14                  408                      2.095459066120393E-4
1.0E-14                  409                      2.0980499313468111E-4
1.0E-14                  410                      2.1006382617822555E-4
1.0E-14                  411                      2.1032240574267208E-4
1.0E-14                  412                      2.1058073182802107E-4
1.0E-14                  413                      2.108388044342722E-4