% Model:              NP_reactive_flow_Different_injection_TCE_in_Low_Permeable2.mph
% Version:            COMSOL 5.2.0.166
% Date:               Jun 15 2020, 01:33
% Table:              np_outflow_concentraion0 - np_outflow_concentraion (np_outflow_concentraion)
% lowPM_per              t (s)                    np_outflow_concentraion (mol/(m*s))
1.0E-14                  0                        4.63434553446316E-36
1.0E-14                  1                        2.0214019713124357E-32
1.0E-14                  2                        1.2744609489594224E-30
1.0E-14                  3                        9.941148514166937E-31
1.0E-14                  4                        -9.324734271451008E-29
1.0E-14                  5                        4.415914586795647E-28
1.0E-14                  6                        -1.1572398576900743E-28
1.0E-14                  7                        -3.714526726513265E-27
1.0E-14                  8                        1.679736229321005E-26
1.0E-14                  9                        -3.768034439156965E-27
1.0E-14                  10                       -5.408312837017405E-26
1.0E-14                  11                       -8.475524578940319E-28
1.0E-14                  12                       1.1282470155203168E-25
1.0E-14                  13                       5.090471095739821E-26
1.0E-14                  14                       -2.5651432149255757E-25
1.0E-14                  15                       -4.588117932682184E-25
1.0E-14                  16                       -2.7504468285742996E-26
1.0E-14                  17                       1.230825933392659E-24
1.0E-14                  18                       2.836687377811197E-24
1.0E-14                  19                       3.624404730250049E-24
1.0E-14                  20                       1.845409864458043E-24
1.0E-14                  21                       -4.4374680961014836E-24
1.0E-14                  22                       -1.6345753108539983E-23
1.0E-14                  23                       -3.1979327477279535E-23
1.0E-14                  24                       -4.387917654959261E-23
1.0E-14                  25                       -3.3038764019764026E-23
1.0E-14                  26                       3.146433100292448E-24
1.0E-14                  27                       7.332198183681269E-23
1.0E-14                  28                       1.7877837541563697E-22
1.0E-14                  29                       3.2294134289242152E-22
1.0E-14                  30                       5.07343879885175E-22
1.0E-14                  31                       7.136530198917536E-22
1.0E-14                  32                       9.05301255381516E-22
1.0E-14                  33                       8.295037501575623E-22
1.0E-14                  34                       2.895343025243736E-22
1.0E-14                  35                       -1.569289503289868E-21
1.0E-14                  36                       -5.375911703657435E-21
1.0E-14                  37                       -1.1819848158396599E-20
1.0E-14                  38                       -2.0779049392261314E-20
1.0E-14                  39                       -2.9247167707036415E-20
1.0E-14                  40                       -3.129412142943744E-20
1.0E-14                  41                       2.1448047531219403E-21
1.0E-14                  42                       9.610460430815415E-20
1.0E-14                  43                       3.598346713628229E-19
1.0E-14                  44                       9.657083508287749E-19
1.0E-14                  45                       2.085704686081723E-18
1.0E-14                  46                       4.591610121884773E-18
1.0E-14                  47                       8.929831716414163E-18
1.0E-14                  48                       1.639295299800966E-17
1.0E-14                  49                       2.849752195437909E-17
1.0E-14                  50                       4.499594192380448E-17
1.0E-14                  51                       6.343099707657494E-17
1.0E-14                  52                       6.757944954199788E-17
1.0E-14                  53                       4.1905245289768997E-17
1.0E-14                  54                       -1.4367671279602942E-16
1.0E-14                  55                       -6.246420529396272E-16
1.0E-14                  56                       -1.713568535030935E-15
1.0E-14                  57                       -3.902293214741037E-15
1.0E-14                  58                       -8.187795914150115E-15
1.0E-14                  59                       -1.620080442749299E-14
1.0E-14                  60                       -3.042710772191803E-14
1.0E-14                  61                       -5.4904943255355125E-14
1.0E-14                  62                       -9.584033006138896E-14
1.0E-14                  63                       -1.5974063674562365E-13
1.0E-14                  64                       -2.538065968410204E-13
1.0E-14                  65                       -3.815195584321111E-13
1.0E-14                  66                       -5.355960866392184E-13
1.0E-14                  67                       -5.847107309952841E-13
1.0E-14                  68                       -4.635707367958574E-13
1.0E-14                  69                       1.297544276675734E-13
1.0E-14                  70                       1.6241131929136037E-12
1.0E-14                  71                       4.9176360232054524E-12
1.0E-14                  72                       1.1388528400367986E-11
1.0E-14                  73                       2.4037552279160484E-11
1.0E-14                  74                       4.730258408116252E-11
1.0E-14                  75                       8.742482252367047E-11
1.0E-14                  76                       1.5536320671920823E-10
1.0E-14                  77                       2.679536340650941E-10
1.0E-14                  78                       4.4906491848714864E-10
1.0E-14                  79                       7.329195440952677E-10
1.0E-14                  80                       1.1675409490946241E-9
1.0E-14                  81                       1.8322530962595165E-9
1.0E-14                  82                       2.814434962336489E-9
1.0E-14                  83                       4.250388858818103E-9
1.0E-14                  84                       6.324385840954107E-9
1.0E-14                  85                       9.265770750215546E-9
1.0E-14                  86                       1.3395184149807141E-8
1.0E-14                  87                       1.9079703495364674E-8
1.0E-14                  88                       2.684913898379753E-8
1.0E-14                  89                       3.729956993092536E-8
1.0E-14                  90                       5.120959825358473E-8
1.0E-14                  91                       6.950649954785146E-8
1.0E-14                  92                       9.32467669379006E-8
1.0E-14                  93                       1.2376056561920052E-7
1.0E-14                  94                       1.6240904741307708E-7
1.0E-14                  95                       2.1093806626250131E-7
1.0E-14                  96                       2.71440940133124E-7
1.0E-14                  97                       3.4578469355524936E-7
1.0E-14                  98                       4.3575753178921344E-7
1.0E-14                  99                       5.437109660030434E-7
1.0E-14                  100                      6.714386143894322E-7
1.0E-14                  101                      8.210122169049567E-7
1.0E-14                  102                      9.943493339473933E-7
1.0E-14                  103                      1.1932550146979634E-6
1.0E-14                  104                      1.4190108408169214E-6
1.0E-14                  105                      1.6724803238116426E-6
1.0E-14                  106                      1.9542903540101106E-6
1.0E-14                  107                      2.264447056415313E-6
1.0E-14                  108                      2.602020685657292E-6
1.0E-14                  109                      2.9619347577976155E-6
1.0E-14                  110                      3.343202381828844E-6
1.0E-14                  111                      3.742862195290747E-6
1.0E-14                  112                      4.153007449474572E-6
1.0E-14                  113                      4.577939566871171E-6
1.0E-14                  114                      5.002995388671843E-6
1.0E-14                  115                      5.429974662634829E-6
1.0E-14                  116                      5.85671250906236E-6
1.0E-14                  117                      6.271091880916957E-6
1.0E-14                  118                      6.679499037814679E-6
1.0E-14                  119                      7.072527600615661E-6
1.0E-14                  120                      7.450622683895048E-6
1.0E-14                  121                      7.81421964445967E-6
1.0E-14                  122                      8.158907000980828E-6
1.0E-14                  123                      8.486943743650166E-6
1.0E-14                  124                      8.797895197898932E-6
1.0E-14                  125                      9.091746235814918E-6
1.0E-14                  126                      9.369818078919102E-6
1.0E-14                  127                      9.637115626817555E-6
1.0E-14                  128                      9.891142985190468E-6
1.0E-14                  129                      1.0131900154037848E-5
1.0E-14                  130                      1.0359387133359693E-5
1.0E-14                  131                      1.0575389649353769E-5
1.0E-14                  132                      1.0787116091866364E-5
1.0E-14                  133                      1.098891926062876E-5
1.0E-14                  134                      1.1180799155640946E-5
1.0E-14                  135                      1.1362755776902932E-5
1.0E-14                  136                      1.1536202139943357E-5
1.0E-14                  137                      1.1708521447197567E-5
1.0E-14                  138                      1.1874121264677902E-5
1.0E-14                  139                      1.2033001592384365E-5
1.0E-14                  140                      1.2185162430316955E-5
1.0E-14                  141                      1.2331115365235906E-5
1.0E-14                  142                      1.247444873356805E-5
1.0E-14                  143                      1.2612525466208786E-5
1.0E-14                  144                      1.2745345563158115E-5
1.0E-14                  145                      1.2872909024416048E-5
1.0E-14                  146                      1.2995286803018663E-5
1.0E-14                  147                      1.3113189375589544E-5
1.0E-14                  148                      1.3226108670227783E-5
1.0E-14                  149                      1.3334044686933393E-5
1.0E-14                  150                      1.3436997425706368E-5
1.0E-14                  151                      1.353501462930234E-5
1.0E-14                  152                      1.3628864001015614E-5
1.0E-14                  153                      1.3718009988921694E-5
1.0E-14                  154                      1.3802452593020571E-5
1.0E-14                  155                      1.3882191813312252E-5
1.0E-14                  156                      1.395727954119928E-5
1.0E-14                  157                      1.4029524279351668E-5
1.0E-14                  158                      1.4097692659424777E-5
1.0E-14                  159                      1.4161784681418596E-5
1.0E-14                  160                      1.4221800345333118E-5
1.0E-14                  161                      1.4277739651168358E-5
1.0E-14                  162                      1.433211024631283E-5
1.0E-14                  163                      1.4383240363341897E-5
1.0E-14                  164                      1.4431126765023586E-5
1.0E-14                  165                      1.4475769451357892E-5
1.0E-14                  166                      1.4517168422344812E-5
1.0E-14                  167                      1.4559151625478648E-5
1.0E-14                  168                      1.4599333037975804E-5
1.0E-14                  169                      1.4637594374891055E-5
1.0E-14                  170                      1.4673935636224405E-5
1.0E-14                  171                      1.470835682197585E-5
1.0E-14                  172                      1.4740857932145386E-5
1.0E-14                  173                      1.4771438966733032E-5
1.0E-14                  174                      1.4800099925738767E-5
1.0E-14                  175                      1.4826840809162598E-5
1.0E-14                  176                      1.4851661617004527E-5
1.0E-14                  177                      1.4877366519163056E-5
1.0E-14                  178                      1.4902018710224305E-5
1.0E-14                  179                      1.4925321823521439E-5
1.0E-14                  180                      1.4947275859054452E-5
1.0E-14                  181                      1.4967880816823336E-5
1.0E-14                  182                      1.4987136696828111E-5
1.0E-14                  183                      1.5005043499068752E-5
1.0E-14                  184                      1.5021601223545274E-5
1.0E-14                  185                      1.5036809870257672E-5
1.0E-14                  186                      1.5050669439205956E-5
1.0E-14                  187                      1.5065423657054163E-5
1.0E-14                  188                      1.5079751664699415E-5
1.0E-14                  189                      1.5093228360781422E-5
1.0E-14                  190                      1.510585374530018E-5
1.0E-14                  191                      1.5117627818255687E-5
1.0E-14                  192                      1.512855057964794E-5
1.0E-14                  193                      1.513862202947695E-5
1.0E-14                  194                      1.5147842167742702E-5
1.0E-14                  195                      1.5156210994445203E-5
1.0E-14                  196                      1.5163728509584464E-5
1.0E-14                  197                      1.5171660090259622E-5
1.0E-14                  198                      1.5179413048905617E-5
1.0E-14                  199                      1.5186622658658071E-5
1.0E-14                  200                      1.5193288919516988E-5
1.0E-14                  201                      1.5199411831482358E-5
1.0E-14                  202                      1.5204991394554184E-5
1.0E-14                  203                      1.5210027608732475E-5
1.0E-14                  204                      1.5214520474017214E-5
1.0E-14                  205                      1.5218469990408419E-5
1.0E-14                  206                      1.5221876157906074E-5
1.0E-14                  207                      1.5226009589677196E-5
1.0E-14                  208                      1.5230458170886488E-5
1.0E-14                  209                      1.5234705442102174E-5
1.0E-14                  210                      1.5238751403324238E-5
1.0E-14                  211                      1.524259605455269E-5
1.0E-14                  212                      1.5246239395787534E-5
1.0E-14                  213                      1.5249681427028762E-5
1.0E-14                  214                      1.5252922148276378E-5
1.0E-14                  215                      1.525596155953038E-5
1.0E-14                  216                      1.525879966079077E-5
1.0E-14                  217                      1.5261436452057545E-5
1.0E-14                  218                      1.526387193333071E-5
1.0E-14                  219                      1.526610610461026E-5
1.0E-14                  220                      1.526813896589619E-5
1.0E-14                  221                      1.526997051718852E-5
1.0E-14                  222                      1.527160075848723E-5
1.0E-14                  223                      1.5273029689792333E-5
1.0E-14                  224                      1.5274257311103813E-5
1.0E-14                  225                      1.5275283622421686E-5
1.0E-14                  226                      1.5276108623745944E-5
1.0E-14                  227                      1.5277353230147585E-5
1.0E-14                  228                      1.5278981196047492E-5
1.0E-14                  229                      1.5280516247067328E-5
1.0E-14                  230                      1.5281958383207093E-5
1.0E-14                  231                      1.5283307604466793E-5
1.0E-14                  232                      1.528456391084642E-5
1.0E-14                  233                      1.5285727302345973E-5
1.0E-14                  234                      1.528679777896546E-5
1.0E-14                  235                      1.528777534070488E-5
1.0E-14                  236                      1.5288659987564224E-5
1.0E-14                  237                      1.5289451719543497E-5
1.0E-14                  238                      1.5290150536642706E-5
1.0E-14                  239                      1.5290756438861833E-5
1.0E-14                  240                      1.52912694262009E-5
1.0E-14                  241                      1.5291689498659895E-5
1.0E-14                  242                      1.5292016656238812E-5
1.0E-14                  243                      1.5292250898937675E-5
1.0E-14                  244                      1.529239222675645E-5
1.0E-14                  245                      1.529244063969516E-5
1.0E-14                  246                      1.5292396137753807E-5
1.0E-14                  247                      1.5292610150838374E-5
1.0E-14                  248                      1.529328096984429E-5
1.0E-14                  249                      1.5293940906500327E-5
1.0E-14                  250                      1.52945899608065E-5
1.0E-14                  251                      1.5295228132762788E-5
1.0E-14                  252                      1.5295855422369202E-5
1.0E-14                  253                      1.5296471829625735E-5
1.0E-14                  254                      1.5297077354532403E-5
1.0E-14                  255                      1.529767199708919E-5
1.0E-14                  256                      1.52982557572961E-5
1.0E-14                  257                      1.5298828635153127E-5
1.0E-14                  258                      1.529939063066029E-5
1.0E-14                  259                      1.5299941743817572E-5
1.0E-14                  260                      1.530048197462498E-5
1.0E-14                  261                      1.5301011323082508E-5
1.0E-14                  262                      1.530152978919016E-5
1.0E-14                  263                      1.530203737294794E-5
1.0E-14                  264                      1.5302534074355836E-5
1.0E-14                  265                      1.530301989341386E-5
1.0E-14                  266                      1.5303494830122013E-5
1.0E-14                  267                      1.530399390225628E-5
1.0E-14                  268                      1.53045799705415E-5
1.0E-14                  269                      1.5305167406743585E-5
1.0E-14                  270                      1.530575621086254E-5
1.0E-14                  271                      1.530634638289835E-5
1.0E-14                  272                      1.5306937922851034E-5
1.0E-14                  273                      1.530753083072058E-5
1.0E-14                  274                      1.530812510650699E-5
1.0E-14                  275                      1.5308720750210264E-5
1.0E-14                  276                      1.5309317761830407E-5
1.0E-14                  277                      1.5309916141367418E-5
1.0E-14                  278                      1.531051588882129E-5
1.0E-14                  279                      1.5311117004192023E-5
1.0E-14                  280                      1.5311719487479628E-5
1.0E-14                  281                      1.5312323338684093E-5
1.0E-14                  282                      1.5312928557805426E-5
1.0E-14                  283                      1.5313535144843624E-5
1.0E-14                  284                      1.5314143099798686E-5
1.0E-14                  285                      1.5314752422670613E-5
1.0E-14                  286                      1.5315363113459407E-5
1.0E-14                  287                      1.5315969071613738E-5
1.0E-14                  288                      1.5316537486200784E-5
1.0E-14                  289                      1.5317103066525718E-5
1.0E-14                  290                      1.5317665812588537E-5
1.0E-14                  291                      1.5318225724389234E-5
1.0E-14                  292                      1.5318782801927817E-5
1.0E-14                  293                      1.531933704520428E-5
1.0E-14                  294                      1.5319888454218622E-5
1.0E-14                  295                      1.5320437028970845E-5
1.0E-14                  296                      1.532098276946095E-5
1.0E-14                  297                      1.5321525675688943E-5
1.0E-14                  298                      1.5322065747654808E-5
1.0E-14                  299                      1.5322602985358567E-5
1.0E-14                  300                      1.5323137388800205E-5
1.0E-14                  301                      1.532366895797972E-5
1.0E-14                  302                      1.5324197692897115E-5
1.0E-14                  303                      1.5324723593552404E-5
1.0E-14                  304                      1.532524665994556E-5
1.0E-14                  305                      1.5325766892076613E-5
1.0E-14                  306                      1.532628428994554E-5
1.0E-14                  307                      1.5326798853552348E-5
1.0E-14                  308                      1.5327310582897038E-5
1.0E-14                  309                      1.5327819477979606E-5
1.0E-14                  310                      1.532832553880007E-5
1.0E-14                  311                      1.532882876535841E-5
1.0E-14                  312                      1.5329329157654622E-5
1.0E-14                  313                      1.5329826715688727E-5
1.0E-14                  314                      1.5330321439460712E-5
1.0E-14                  315                      1.5330813328970573E-5
1.0E-14                  316                      1.533130238421832E-5
1.0E-14                  317                      1.533178860520395E-5
1.0E-14                  318                      1.533227199192746E-5
1.0E-14                  319                      1.5332752544388857E-5
1.0E-14                  320                      1.5333230262588128E-5
1.0E-14                  321                      1.5333705146525288E-5
1.0E-14                  322                      1.533417719620033E-5
1.0E-14                  323                      1.5334646411613248E-5
1.0E-14                  324                      1.5335112792764052E-5
1.0E-14                  325                      1.5335576339652735E-5
1.0E-14                  326                      1.5336037052279305E-5
1.0E-14                  327                      1.533649493064375E-5
1.0E-14                  328                      1.5336977964503545E-5
1.0E-14                  329                      1.5337463828419695E-5
1.0E-14                  330                      1.5337948422919145E-5
1.0E-14                  331                      1.5338431748001914E-5
1.0E-14                  332                      1.5338913803667986E-5
1.0E-14                  333                      1.5339394589917364E-5
1.0E-14                  334                      1.5339874106750062E-5
1.0E-14                  335                      1.534035235416606E-5
1.0E-14                  336                      1.5340829332165376E-5
1.0E-14                  337                      1.5341305040747996E-5
1.0E-14                  338                      1.5341779479913928E-5
1.0E-14                  339                      1.534225264966317E-5
1.0E-14                  340                      1.5342724549995725E-5
1.0E-14                  341                      1.5343195180911572E-5
1.0E-14                  342                      1.5343664542410746E-5
1.0E-14                  343                      1.534413263449323E-5
1.0E-14                  344                      1.534459945715902E-5
1.0E-14                  345                      1.5345065010408115E-5
1.0E-14                  346                      1.5345529294240526E-5
1.0E-14                  347                      1.5345992308656238E-5
1.0E-14                  348                      1.534645405365527E-5
1.0E-14                  349                      1.5346914529237602E-5
1.0E-14                  350                      1.5347373735403255E-5
1.0E-14                  351                      1.534783167215221E-5
1.0E-14                  352                      1.5348288339484477E-5
1.0E-14                  353                      1.534874373740005E-5
1.0E-14                  354                      1.5349197865898933E-5
1.0E-14                  355                      1.534965072498113E-5
1.0E-14                  356                      1.5350102314646637E-5
1.0E-14                  357                      1.5350552634895443E-5
1.0E-14                  358                      1.5351001685727573E-5
1.0E-14                  359                      1.5351449467143005E-5
1.0E-14                  360                      1.5351895979141746E-5
1.0E-14                  361                      1.53523412217238E-5
1.0E-14                  362                      1.535278519488916E-5
1.0E-14                  363                      1.535322789863783E-5
1.0E-14                  364                      1.5353669332969814E-5
1.0E-14                  365                      1.53541094978851E-5
1.0E-14                  366                      1.5354548393383705E-5
1.0E-14                  367                      1.535498601946561E-5
1.0E-14                  368                      1.5355442112927395E-5
1.0E-14                  369                      1.5355911620764728E-5
1.0E-14                  370                      1.53563814803025E-5
1.0E-14                  371                      1.535685169154072E-5
1.0E-14                  372                      1.535732225447937E-5
1.0E-14                  373                      1.5357793169118468E-5
1.0E-14                  374                      1.5358264435458005E-5
1.0E-14                  375                      1.5358736053497982E-5
1.0E-14                  376                      1.5359208023238405E-5
1.0E-14                  377                      1.535968034467926E-5
1.0E-14                  378                      1.5360153017820567E-5
1.0E-14                  379                      1.5360626042662306E-5
1.0E-14                  380                      1.5361099419204495E-5
1.0E-14                  381                      1.536157314744712E-5
1.0E-14                  382                      1.5362047227390187E-5
1.0E-14                  383                      1.5362521659033695E-5
1.0E-14                  384                      1.5362996442377645E-5
1.0E-14                  385                      1.5363471577422032E-5
1.0E-14                  386                      1.5363947064166868E-5
1.0E-14                  387                      1.536442290261214E-5
1.0E-14                  388                      1.536489909275785E-5
1.0E-14                  389                      1.5365375634604005E-5
1.0E-14                  390                      1.5365852528150603E-5
1.0E-14                  391                      1.536632977339764E-5
1.0E-14                  392                      1.536680737034512E-5
1.0E-14                  393                      1.5367285318993035E-5
1.0E-14                  394                      1.5367763619341395E-5
1.0E-14                  395                      1.53682422713902E-5
1.0E-14                  396                      1.5368721275139444E-5
1.0E-14                  397                      1.536920063058913E-5
1.0E-14                  398                      1.5369680337739254E-5
1.0E-14                  399                      1.5370160396589823E-5
1.0E-14                  400                      1.5370640807140827E-5
1.0E-14                  401                      1.5371121569392278E-5
1.0E-14                  402                      1.537160268334416E-5
1.0E-14                  403                      1.537208414899649E-5
1.0E-14                  404                      1.537256596634927E-5
1.0E-14                  405                      1.5373048135402487E-5
1.0E-14                  406                      1.5373530656156132E-5
1.0E-14                  407                      1.537401352861023E-5
1.0E-14                  408                      1.537447863097804E-5
1.0E-14                  409                      1.537490411303003E-5
1.0E-14                  410                      1.5375327174991985E-5
1.0E-14                  411                      1.5375747816863905E-5